157
Lattice="12.000000 0.000000 0.000000 0.000000 12.000000 0.000000 0.000000 0.000000 12.000000" Properties=species:S:1:pos:R:3:dft_forces:R:3 dft_energy=-5876.00237906
Zn 7.41313 5.26833 9.13785 -0.02275 -0.10516 0.03953
O 7.70004 2.07457 9.83956 -0.48270 -0.05188 -0.96625
H 7.31729 2.25519 10.70589 -0.06608 0.10790 0.53442
H 6.90591 1.95467 9.26325 0.57563 0.04432 0.22642
O 9.81024 11.34324 11.48580 0.27370 -0.16252 -0.19957
H 10.28395 11.97574 0.05767 0.02401 -0.01950 0.00069
H 10.50220 10.87217 10.97121 -0.22514 0.20400 0.18697
O 8.56615 6.26924 6.73960 -0.56434 0.12565 0.37991
H 7.94167 5.77182 6.19074 -0.18107 -0.08851 -0.18674
H 9.39937 6.30543 6.25883 0.47599 0.00400 -0.29058
O 1.09287 7.05679 4.78305 -2.40789 1.66258 2.04141
H 1.64984 6.69978 4.15088 1.89717 -0.27881 -2.11585
H 1.33297 6.66157 5.62419 0.11185 0.44176 0.35932
O 1.45145 1.78408 11.00773 -0.49430 0.10344 0.42911
H 1.63625 1.03192 10.42104 0.24261 0.09387 -0.16467
H 2.14279 2.46524 10.94334 0.20767 -0.12739 -0.20789
O 8.20408 8.53968 8.46748 -0.50847 0.40432 -0.08407
H 7.39166 8.15011 8.06440 0.51692 -0.07994 0.30066
H 8.77779 7.86655 8.87571 -0.17406 -0.27593 -0.10851
O 6.55619 11.26485 6.40031 0.08585 -0.60643 0.00496
H 6.85682 11.31212 7.32324 -0.04650 0.15888 0.04892
H 6.20411 0.12270 6.14406 -0.16038 0.54201 -0.00615
O 4.44789 2.56028 9.92935 -0.03210 -0.19852 -0.08053
H 5.08314 1.81695 9.97014 -0.16322 0.10175 -0.04405
H 4.00522 2.49836 9.06706 -0.06509 -0.06013 -0.17592
O 3.82822 11.39288 9.15033 0.68692 0.98003 -0.61009
H 3.75984 10.72340 8.45355 -0.29725 -0.25278 0.07725
H 3.35285 11.15705 9.94582 -0.53478 -0.52146 0.54547
O 11.68401 5.59911 9.37223 -0.33000 0.45473 -0.13410
H 0.10671 6.38938 8.97787 0.02533 -0.24975 0.19538
H 0.39977 4.99547 9.59188 0.41420 -0.42529 0.11629
O 1.84255 1.55380 8.21710 0.28484 -0.09082 -0.19452
H 1.98141 1.84050 7.28732 0.06462 -0.15877 0.31121
H 2.61951 1.00072 8.48261 -0.26388 0.16619 -0.22346
O 2.84999 5.38944 10.24809 -0.47989 0.36508 0.03184
H 1.91093 5.20081 10.47045 0.46549 -0.01794 -0.05124
H 3.34583 4.56096 10.32292 0.11299 -0.37673 0.05843
O 1.58010 11.58247 1.90073 -0.27747 0.17608 0.17043
H 6.95310 11.41814 11.36130 -0.25767 0.24639 -0.27394
H 0.66468 0.01240 1.77304 0.20228 -0.04651 0.11335
O 8.04332 1.17529 0.60562 0.17074 0.26902 0.37561
H 8.68708 1.65565 1.16697 -0.03050 -0.21340 -0.16040
H 7.27108 1.76601 0.60215 -0.18955 -0.00166 -0.05348
O 1.19409 10.43524 8.03224 1.05348 0.38704 -0.22172
H 0.29432 10.58874 7.74104 -0.83174 0.03101 -0.13129
H 1.72739 11.00153 7.42140 -0.23623 -0.39568 0.44996
O 10.25478 1.04620 8.43270 -0.22999 -1.21080 -0.64652
H 9.33217 10.06846 5.25785 0.60712 0.00548 -0.06252
H 10.44132 1.90415 8.84976 0.24414 1.18354 0.61781
O 8.03636 5.26385 11.85840 -0.39914 -0.01822 -0.31828
H 11.12063 1.08309 2.37648 0.02763 -0.04081 -0.04974
H 8.75427 4.66749 0.22606 0.16972 -0.10982 0.09861
O 1.14688 7.50586 1.68021 0.22380 -0.09340 0.04689
H 0.32524 7.93934 1.40462 -0.20103 0.11027 -0.06158
H 1.86819 8.09365 1.39141 -0.03069 -0.00956 0.00190
O 3.64880 10.69679 5.20985 0.37777 -0.72915 0.37447
H 4.19016 10.07508 5.76518 -0.39461 0.48494 -0.40950
H 3.80294 11.58190 5.57942 0.01143 0.18255 0.09120
O 5.16228 7.19528 10.94025 -0.08376 -0.05771 -0.27823
H 5.90178 6.93944 10.34706 -0.07146 -0.01908 0.08764
H 5.51683 7.18246 11.84430 0.09711 -0.02949 0.14156
O 10.15939 3.04349 10.85604 -0.16795 0.02965 -0.73052
H 10.79216 3.34147 10.17285 0.03169 -0.08253 0.10306
H 9.45886 3.73200 10.83449 0.09562 -0.26738 -0.01618
O 10.62096 4.25323 0.87960 0.73244 0.31786 1.41458
H 11.52527 4.58685 0.72353 -0.07097 -0.01982 -0.47648
H 10.65941 4.23730 1.86446 -0.44434 -0.14393 -0.36489
O 9.33957 6.65986 1.42411 -0.03158 0.37738 0.16615
H 9.99712 6.18493 0.88745 0.12283 -0.13960 -0.17141
H 9.85652 7.00830 2.16163 0.14991 0.22568 0.38551
O 5.60135 4.01087 11.63347 0.33885 -0.22946 0.62888
H 5.76282 4.25237 0.57245 -0.14455 0.24626 -0.19902
H 5.93410 3.08851 11.62619 -0.10775 0.18108 -0.19565
O 4.20330 9.77706 11.69545 0.67737 -0.72075 0.85466
H 4.53766 9.24327 0.47312 -0.33479 0.57373 -0.86428
H 3.46587 10.30343 0.05014 -0.21391 0.10893 0.07135
O 9.76217 2.06389 5.69469 -0.11914 0.02678 -0.30414
H 10.48658 1.85466 5.07912 0.00993 -0.00014 -0.08189
H 10.10276 1.82084 6.57364 0.02643 -0.12451 0.37225
O 6.25544 8.36485 4.98701 0.14104 0.43772 0.63320
H 6.56017 8.44076 5.93190 -0.29035 -0.30022 -0.71618
H 6.16621 7.41575 4.71954 0.04954 0.12997 0.29769
O 11.87075 3.70037 6.69808 0.32626 0.75802 0.11088
H 0.69202 4.20220 6.89248 -0.36223 -0.07936 -0.07292
H 0.16023 2.78314 6.69769 0.08526 -0.62219 -0.01994
O 4.10675 6.04882 6.25600 0.11948 -0.07653 0.13726
H 3.76080 5.59980 7.05995 -0.05910 0.05764 -0.53334
H 3.43541 6.09156 5.54150 0.01525 -0.15889 0.33963
O 6.63890 11.47578 10.45167 0.49469 -0.10985 0.49450
H 5.69128 11.40273 10.44067 -0.44212 0.06981 0.09238
H 6.96588 10.68565 10.04049 0.17160 -0.23440 -0.36261
O 8.94290 9.79128 6.07659 3.90924 0.85365 0.14673
H 8.08512 9.90485 5.89732 -4.43300 0.18024 -0.35850
H 9.17006 8.90046 6.23465 0.07787 -1.09764 0.18453
O 7.88191 10.39152 1.46934 -0.03355 0.01653 0.14189
H 7.33688 10.00285 0.74533 0.25431 -0.10137 0.32627
H 8.11148 9.69456 2.12672 -0.28777 0.11444 -0.39386
O 1.05592 8.46010 4.81995 0.00556 -1.79378 -0.96044
H 1.88264 8.81050 5.16370 0.10620 -0.07641 0.42985
H 0.26150 8.69925 5.31638 0.28103 0.05997 0.24640
O 5.43018 1.18312 3.68811 0.01633 -1.01514 -0.03590
H 5.10651 0.67465 4.47842 0.86875 0.72793 -0.75123
H 4.96971 2.04066 3.60375 0.81239 -0.10039 0.15353
O 6.75518 7.79418 2.33037 0.20222 0.09074 -0.69018
H 7.59695 7.42886 2.67674 -0.13772 0.06931 -0.12348
H 6.90789 7.95790 1.36213 -0.13364 -0.13775 0.73245
O 6.83429 1.20416 3.56322 -1.55657 -0.15548 -0.67674
H 7.13054 2.07593 3.84638 -0.00766 0.21734 0.06177
H 6.99320 1.12521 2.58638 -0.02525 0.15972 0.99652
O 7.75510 8.45089 11.35089 -0.07701 -0.65128 0.16636
H 7.59036 8.51224 10.37527 0.04550 -0.19710 0.34833
H 7.65050 7.50193 11.65514 0.14837 0.80420 -0.53886
O 3.84257 7.08142 3.35802 -0.24749 0.55757 0.64627
H 4.82975 7.08750 3.38194 -0.45771 -0.27903 -0.53078
H 3.39893 6.63479 2.61075 0.55764 -0.08657 -0.13089
O 4.47925 4.65142 2.33988 0.09783 -0.80581 0.31410
H 3.91641 4.20969 1.69256 -0.38750 0.15856 -0.59889
H 4.64590 3.87722 2.91763 0.19046 0.40361 0.14899
O 9.28884 4.47995 4.28415 -0.39552 -1.18249 -1.45909
H 8.83852 4.87265 3.49985 0.29327 0.01782 0.61296
H 9.47227 5.12817 4.94967 0.19872 1.13224 0.69531
O 11.15966 8.51330 10.10202 0.00326 -0.00391 0.08015
H 11.90063 9.08430 9.81566 -0.19298 0.03129 0.12183
H 10.54185 9.04606 10.64253 0.21363 -0.02302 -0.12812
O 6.31326 5.70558 4.15747 -0.45023 -0.37817 -0.27074
H 6.12811 5.46811 3.21321 0.32546 0.20449 0.55055
H 7.23982 5.97230 4.25697 0.35470 -0.10062 -0.20007
O 1.51103 10.56156 11.48791 -0.78527 -0.17008 -0.22700
H 1.65083 11.51438 11.59441 0.30583 0.34561 0.01998
H 0.53045 10.51020 11.54319 0.34246 -0.25356 -0.04158
O 10.65760 7.48414 7.57200 0.49129 0.20611 -0.07064
H 11.62732 7.58267 7.66732 -0.18751 0.06542 -0.10015
H 10.40482 6.84645 8.26598 -0.06751 0.00081 -0.03675
O 10.66473 9.95377 2.47992 0.20586 0.75539 -0.63233
H 11.44438 10.28890 1.97023 -0.26240 -0.36561 0.38180
H 9.96919 10.59595 2.19609 0.16034 -0.38729 0.25394
O 2.56677 8.04833 7.69087 -0.23309 0.03640 0.00985
H 2.89540 7.21626 7.30325 0.04237 -0.21008 0.02673
H 2.78427 8.70779 7.00863 -0.02933 0.18792 0.01078
O 5.07270 8.96597 7.78398 0.27983 0.44907 0.07441
H 5.09665 8.14599 8.29988 -0.01058 -0.26168 0.12065
H 5.19139 9.68498 8.44195 0.06686 -0.25529 -0.23128
O 3.93976 0.98047 0.31005 -0.32390 1.22707 -0.93004
H 4.16549 0.20100 0.78494 0.40811 -1.39078 0.83808
H 3.72133 1.64423 0.97870 -0.04950 0.15809 0.14150
O 4.84445 2.66369 5.81121 -1.15331 -0.22209 0.18318
H 4.08364 2.03405 5.78130 0.55247 0.05653 -0.01245
H 4.35935 3.49169 5.99070 0.29023 0.23208 0.01314
O 2.50872 1.27558 4.16673 -0.34538 0.49289 -0.08623
H 1.67068 0.99118 3.75163 0.09382 -0.27939 0.00508
H 2.39792 2.24939 4.16116 0.24716 -0.18094 0.10376
O 11.61008 10.92670 5.56289 -0.01468 0.02807 -0.05717
H 11.19477 11.24431 6.39706 0.28805 0.17348 -0.46639
H 0.16126 11.62069 5.13460 -0.32498 -0.12508 0.43712
O 7.19420 3.80395 6.24440 0.06787 -0.38516 0.15726
H 8.02379 3.78292 5.70879 -0.20626 -0.19495 0.06475
H 6.88337 2.87417 6.38719 0.29526 0.50912 -0.14583
157
Lattice="12.000000 0.000000 0.000000 0.000000 12.000000 0.000000 0.000000 0.000000 12.000000" Properties=species:S:1:pos:R:3:dft_forces:R:3 dft_energy=-5876.00704128
Zn 5.87459 0.48806 5.44533 -0.48902 0.31619 0.44415
O 11.17839 3.65004 0.47275 0.19742 -0.05525 0.60764
H 11.24095 2.71925 0.18254 0.05931 0.05570 0.10665
H 11.58736 3.70511 1.37149 -0.22047 -0.13129 -0.56094
O 8.27616 2.06573 0.87099 -0.02522 0.12112 -0.09596
H 8.95023 2.77449 0.74790 -0.39175 -0.17083 0.11137
H 7.44139 2.46404 1.20132 0.38291 0.03684 -0.09830
O 11.63605 5.61622 7.66816 -0.56872 -0.09135 0.64522
H 0.32989 5.31161 7.06812 0.25577 -0.23640 -0.24628
H 11.84865 5.25086 8.55353 -0.05201 0.08239 -0.29470
O 0.45271 0.74043 9.24751 -0.81185 -0.38337 0.52792
H 0.87479 0.31847 8.49834 -0.23286 0.42111 -0.84208
H 1.14144 0.64610 9.89009 0.52891 0.25124 0.98607
O 8.53769 7.02321 10.90322 0.35658 0.54300 -0.48791
H 8.39627 7.56211 10.08554 -0.08372 -0.40808 0.46843
H 9.42180 7.33736 11.20424 -0.27207 -0.17794 0.03703
O 8.12684 8.34232 7.43145 -0.32377 -0.51471 0.04231
H 8.47590 9.10953 6.93542 0.06628 0.05543 0.37332
H 8.28018 8.37115 8.40027 0.14408 0.37175 -0.39827
O 2.48273 6.59376 4.42529 0.20783 0.71966 0.01271
H 2.40331 5.86752 5.05148 -0.10048 -0.51043 0.36720
H 2.89484 7.31895 4.94764 -0.19102 -0.26410 -0.28629
O 8.37801 1.48274 6.04050 0.00075 0.28946 0.33983
H 8.42888 0.51020 6.02406 0.22469 -0.12392 0.09623
H 8.36745 1.74176 6.98938 -0.01012 -0.14313 -0.39422
O 3.66536 11.39589 7.47039 0.62900 -0.09544 0.89187
H 3.24676 11.35091 6.59050 0.22003 -0.37686 -0.26778
H 4.41342 10.75892 7.65156 -0.88029 0.47542 -0.66422
O 5.04958 2.04665 0.42783 -0.06432 0.14719 -0.18830
H 5.80686 2.40502 11.91979 -0.24642 -0.05176 0.04110
H 4.23374 2.24457 11.91561 0.34678 -0.03103 0.12871
O 6.88434 10.75252 3.76857 0.74097 0.06339 -0.18079
H 6.64378 11.58845 3.33587 0.10706 -0.00480 -0.34185
H 6.04010 10.32486 3.94347 -0.51099 -0.35181 0.09227
O 4.22752 4.64229 10.30647 -0.52239 -0.14745 -0.52703
H 4.64920 4.23716 9.51330 0.16358 0.20626 0.59229
H 4.82690 4.78256 11.06454 0.39667 -0.06971 -0.08922
O 1.82631 3.49163 10.91316 1.47473 0.31922 1.00448
H 5.60546 10.67929 10.69198 -0.03528 0.29823 0.07858
H 1.01220 3.33876 10.41332 -1.48473 -0.34080 -0.91658
O 11.18241 0.40736 5.35143 0.24386 0.04440 0.23543
H 11.47342 0.73612 4.48337 0.03930 0.04574 -0.11178
H 11.94553 0.52765 5.95888 -0.25234 0.03165 -0.27395
O 5.64960 5.99278 0.49558 -0.66347 0.33511 -0.09901
H 6.12010 5.57620 1.21709 0.66459 -0.50443 0.46279
H 4.89265 6.38547 0.98529 -0.00279 0.07862 -0.28570
O 9.59637 9.70691 11.40124 0.26401 -0.11749 0.06107
H 4.79562 9.01715 4.35789 0.05592 -0.61103 -0.58896
H 8.62113 9.69811 11.19960 -0.24221 -0.01677 -0.03040
O 1.94717 6.79043 7.27306 0.53875 0.08084 -0.06002
H 3.85718 7.43406 2.44546 0.13410 0.03449 -0.14698
H 1.16463 6.93845 7.88143 -0.10423 0.07700 0.11248
O 5.81177 4.63861 5.06895 -0.31786 -0.09803 0.05357
H 6.03152 5.12837 4.25946 0.08961 0.04441 -0.11360
H 6.57448 4.07240 5.27905 0.13234 -0.00578 -0.03887
O 3.45285 11.93986 11.51022 0.04526 0.23187 -0.64248
H 3.32270 0.24482 10.58819 -0.40409 0.04040 0.21547
H 4.39341 11.70489 11.44982 0.12862 -0.06862 0.30879
O 8.25106 4.89448 6.60586 0.13175 -0.40853 -0.20392
H 8.09485 5.51579 7.33580 -0.03613 -0.01852 0.20629
H 8.28962 3.98254 6.97063 -0.02917 0.43708 -0.01431
O 2.03150 10.11223 10.07623 -0.42488 -0.68488 0.03653
H 1.43212 9.51927 10.59002 0.24025 0.44180 -0.02344
H 2.22354 9.55351 9.29775 0.13792 0.21423 -0.05967
O 6.48760 7.37681 4.79279 -0.24282 0.58650 -0.33625
H 6.39457 8.16100 5.35827 0.24776 -0.07515 0.56097
H 6.08566 7.76731 3.99273 0.03848 -0.48361 -0.26041
O 2.00637 11.75330 4.83328 0.22245 0.22218 0.14056
H 1.84837 0.70122 5.03842 0.10508 -0.09729 -0.08775
H 1.12547 11.40641 4.62031 -0.19850 -0.18650 -0.07084
O 4.52890 10.80176 1.98807 0.38971 0.04057 0.23111
H 4.07994 11.09517 1.17802 -0.23257 -0.03353 -0.03894
H 3.91705 10.24974 2.50241 -0.18014 -0.06010 -0.04225
O 6.49171 0.37309 8.71416 1.37455 -0.40700 0.03066
H 7.05739 0.15563 7.93237 -0.42390 0.15743 0.43018
H 5.62179 0.58905 8.38569 -0.91017 0.15567 -0.41287
O 3.59828 2.29595 4.47411 0.13520 -0.73483 0.04767
H 3.99596 3.12420 4.78501 0.31239 0.24141 -0.09720
H 4.03354 1.99330 3.64797 -0.01951 0.30142 0.27637
O 11.66758 8.04547 10.63199 -0.10254 -0.42773 0.30195
H 0.07985 8.26574 9.78456 0.09309 0.01625 -0.31956
H 11.78245 7.07800 10.75186 -0.01016 0.32954 -0.05435
O 7.01922 4.38359 9.32654 -0.25644 0.02394 0.53463
H 6.95560 4.30707 10.30186 -0.15110 0.09431 -0.25922
H 7.91302 4.06066 9.15389 0.41830 -0.13595 -0.26081
O 5.34745 2.70219 7.08417 -0.10815 0.95114 1.16886
H 5.07509 2.34357 7.96235 0.04276 -0.09961 -0.52252
H 5.58235 3.63179 7.35417 -0.05663 -0.65035 -0.49549
O 6.32625 10.87131 11.29164 0.36860 -0.06806 -0.17327
H 6.40885 11.80847 11.48679 -0.09327 -0.20761 -0.21083
H 7.11442 10.56047 10.84294 0.02692 0.16891 0.18784
O 4.27566 9.68790 4.78104 -2.58190 -0.50334 3.77451
H 3.29161 9.64360 4.51468 2.38720 -0.02188 0.41266
H 4.29076 9.41466 5.81034 -0.03353 1.07054 -3.48871
O 7.29443 9.15909 1.48842 0.42979 -0.77202 0.11537
H 6.98746 9.31510 2.41155 0.06288 0.07585 -0.17856
H 7.84475 8.33187 1.53995 -0.38490 0.60349 -0.04252
O 0.21089 2.08746 9.05160 2.11548 -1.38743 0.09779
H 11.32731 2.09767 8.71025 -0.68703 0.41256 -0.82499
H 0.94519 2.28868 8.43581 -0.94263 0.68897 -0.03195
O 1.45885 1.87054 1.55965 -0.64259 -0.35159 0.12126
H 1.71101 2.06134 2.49846 0.23075 -0.12706 -1.07849
H 2.18445 1.84056 0.90370 -0.06415 0.23565 0.69025
O 9.81759 11.29867 7.50106 0.82744 0.27027 -0.21191
H 10.68221 11.43598 7.03288 -0.61714 0.12460 0.44262
H 9.61864 10.38686 7.24593 -0.31154 -0.42148 -0.00357
O 0.99927 0.55173 1.57857 0.12121 0.89931 0.48441
H 0.28372 0.54130 2.26117 0.89058 -0.11175 -0.52038
H 1.81048 0.11974 1.88455 -0.53707 -0.64364 0.19736
O 8.87820 3.53390 3.06440 -0.08572 0.91025 -0.04737
H 9.84958 3.64734 3.02987 -0.11814 -0.06263 0.01615
H 8.51464 4.43766 2.86919 0.25213 -0.73701 0.16898
O 1.06146 2.56883 4.44025 -0.66209 0.48983 -0.54409
H 0.24809 2.77188 3.94337 -0.53474 -0.51119 0.36389
H 1.57678 3.22943 3.95420 0.83316 0.18536 0.27157
O 2.85415 7.15239 10.40578 -0.02060 -1.06196 -0.35240
H 2.97223 6.17324 10.19372 0.05763 0.99897 0.29977
H 2.01618 7.38713 9.95984 -0.00881 0.08139 0.02292
O 11.39555 6.25385 1.30701 -1.32286 -0.22342 0.26448
H 10.42164 6.25903 1.53783 1.00460 -0.10754 -0.24585
H 11.67219 7.16656 1.48179 0.24839 0.29938 0.01249
O 4.97832 8.64229 11.78240 -0.69912 0.10068 0.19753
H 4.77648 8.81624 10.84980 -0.03681 -0.03416 -0.17686
H 5.87268 8.28751 11.81235 0.55771 -0.20442 -0.00351
O 0.47253 8.67548 5.68212 -0.05877 -0.36255 -0.46274
H 0.06332 8.93292 6.51731 -0.06238 0.20700 0.34059
H 1.23021 9.25724 5.51593 0.10735 0.16946 0.08890
O 8.93442 7.16793 3.22657 -0.11870 -0.46656 -0.15990
H 8.12637 7.30031 3.77922 0.23044 0.19004 -0.05159
H 9.43513 7.99671 3.13417 -0.07538 0.24005 0.10772
O 4.85243 7.97936 8.11035 -0.20862 -0.25177 -0.04512
H 4.42283 8.27702 8.92907 0.02609 0.25162 0.22782
H 4.33750 7.17364 7.91091 0.13090 0.00526 -0.20685
O 2.27578 3.62172 7.33906 0.72940 0.33187 -0.04287
H 2.30807 4.57115 7.59953 -0.20184 -0.21134 -0.05174
H 3.21963 3.44299 7.09632 -0.49435 -0.11694 0.09124
O 10.09318 4.37673 10.10083 0.31179 0.17823 0.42562
H 9.48588 4.65547 10.82107 0.07869 -0.06275 -0.25448
H 10.98618 4.40892 10.52981 -0.46726 -0.05715 -0.32330
O 10.87158 5.96654 5.04087 -0.41502 -0.14120 0.65513
H 10.66291 5.51582 4.21350 0.08545 -0.05281 -0.44022
H 11.61611 6.56895 4.92219 0.33965 0.22769 -0.26890
O 10.03129 0.25338 11.75173 0.87906 0.72302 1.21735
H 10.58088 1.00607 0.13751 -0.79855 -0.96513 -0.78601
H 9.78468 0.43677 10.83699 0.01904 0.33954 -0.43483
O 3.65722 3.82660 2.36507 -0.40647 0.84408 -1.18709
H 3.95280 4.16613 1.48795 0.51176 -0.36491 0.38035
H 2.75220 4.19173 2.28252 -0.08639 -0.26193 0.60503
O 9.59922 9.49214 5.18314 0.07543 -0.53266 -0.23486
H 9.53284 9.61975 4.21811 -0.02868 0.28025 -0.01856
H 9.72314 8.51955 5.24037 0.00998 0.27333 0.18297
O 1.47740 8.20420 0.84461 0.50725 0.55103 0.61087
H 2.32828 8.39576 0.38867 -0.27456 -0.13683 0.04437
H 1.57952 8.64364 1.72868 -0.11386 -0.35231 -0.62295
O 10.99692 9.71090 2.16029 0.12169 -0.29306 -0.31039
H 11.44784 8.87943 1.91029 0.00474 0.02707 0.35643
H 10.78277 10.05158 1.27177 -0.22982 0.30719 -0.01702
157
Lattice="12.000000 0.000000 0.000000 0.000000 12.000000 0.000000 0.000000 0.000000 12.000000" Properties=species:S:1:pos:R:3:dft_forces:R:3 dft_energy=-5876.35796129
Zn 8.07368 4.95592 3.11701 -0.27475 -0.12275 0.05444
O 8.03559 10.66213 0.99883 -0.21265 0.32899 0.30550
H 8.70927 10.95707 1.64276 0.00872 -0.15441 -0.12800
H 8.35401 9.87189 0.53669 0.29905 -0.28255 -0.07815
O 0.52581 10.57366 0.92187 0.21905 -0.22585 -0.19703
H 11.67723 10.77592 0.50982 -0.38264 -0.00888 -0.31208
H 0.44789 10.98441 1.78891 0.18615 0.33254 0.45537
O 7.80003 8.07849 2.85414 0.19850 -0.51265 -0.00951
H 7.40565 8.78319 2.31957 -0.16050 0.30309 -0.07684
H 7.63463 8.27232 3.79358 -0.08527 0.08265 -0.03015
O 7.82345 3.67372 6.44202 0.00216 -1.89129 0.77107
H 7.91519 2.87355 5.89388 0.27736 -0.41926 0.83295
H 7.44940 4.16089 5.72058 -0.89198 1.41788 -0.28777
O 4.36409 8.94737 6.84567 -0.99397 0.17094 -0.10483
H 4.01794 8.08132 7.12533 0.23861 -0.20630 0.07372
H 3.52770 9.40430 6.57747 0.52385 -0.01505 0.02247
O 6.24755 9.63395 11.09612 0.30444 0.30042 -0.41988
H 5.81048 9.87549 11.93083 0.03193 0.11809 0.08873
H 6.68987 10.44828 10.77041 -0.14529 -0.26886 0.12326
O 4.80376 3.31798 5.27814 -1.48207 0.99254 0.09709
H 5.38757 2.74890 5.77614 0.63583 -0.59743 0.58567
H 4.12212 3.65219 5.92985 0.78367 -0.37984 -0.70540
O 5.67157 6.20137 6.45662 0.08688 -0.02031 0.05411
H 5.38406 5.39338 6.93441 -0.10190 0.26770 -0.25145
H 4.96823 6.47288 5.83449 0.01455 -0.17973 0.13036
O 11.38005 10.58345 10.16560 0.06620 -0.11923 -0.00600
H 0.26322 10.16733 10.28353 -0.33474 0.11225 -0.21243
H 11.12965 10.51127 9.21873 0.20732 0.01046 0.25343
O 11.48852 6.26371 10.09739 0.11220 -0.02852 0.17959
H 11.97517 7.11063 10.10132 -0.12295 -0.09228 -0.07305
H 10.94284 6.23241 9.29197 0.00885 0.10096 -0.06060
O 1.13986 5.71784 7.27155 -0.52302 -0.15078 0.13167
H 0.30327 6.22595 7.16683 0.39246 -0.31631 -0.17610
H 0.87413 4.94537 7.81820 0.17413 0.13891 -0.12086
O 1.98170 3.83055 11.35667 0.40235 0.59287 -0.38812
H 2.25687 2.96003 11.65567 0.03634 -0.63896 0.32458
H 2.76453 4.13443 10.84554 -0.35407 0.08396 0.13958
O 0.85534 11.33508 7.87376 0.01007 0.04071 0.01041
H 2.17843 11.39549 10.24807 -0.22287 -0.17348 -0.43273
H 1.24774 10.69314 7.21028 0.03277 -0.07715 -0.08744
O 8.43744 2.93062 9.89823 -0.30413 -0.16921 -0.96692
H 8.97081 2.77338 10.68344 0.43129 -0.17599 0.46303
H 8.72192 2.29218 9.20142 -0.06946 0.34435 0.52771
O 11.88143 0.87552 5.58066 0.26964 -0.10566 0.17008
H 0.01876 1.83731 5.69197 -0.04799 -0.04599 -0.01459
H 0.69410 0.45061 5.93576 -0.27541 0.10640 -0.07793
O 1.99501 10.09957 5.08554 0.16796 0.81388 0.76324
H 11.53404 8.34721 6.99441 -0.12366 -0.07707 -0.83803
H 1.86003 9.33814 4.48249 -0.04894 -0.77403 -0.59232
O 0.10116 1.33770 2.87445 -0.08905 0.05458 -0.43766
H 10.96613 3.93266 11.51035 0.03879 0.13658 -0.43679
H 0.03514 0.79326 3.72336 0.03050 -0.00751 0.27578
O 6.86031 5.77871 9.90242 -0.24762 0.15621 -0.24212
H 5.96064 6.09041 9.66066 0.19475 -0.05606 0.04518
H 6.73069 5.21635 10.69570 0.00766 -0.07141 0.02902
O 0.81612 2.81856 8.94559 -0.53095 -0.67092 -0.72205
H 1.48064 2.60578 9.61782 0.25646 -0.05003 0.28144
H 0.55212 1.94811 8.54578 0.21711 0.71700 0.31666
O 5.43963 11.67138 2.24568 -0.01008 0.03939 -0.24009
H 6.28132 11.17542 2.25563 0.03063 -0.02390 -0.00898
H 5.36446 0.02044 1.33312 -0.02006 -0.07537 0.21640
O 7.93387 0.24663 6.17243 -0.40894 -0.11513 0.11572
H 8.25269 0.02673 7.06865 0.02834 0.03030 -0.05476
H 7.02043 11.86795 6.12961 0.44987 0.13220 -0.06818
O 7.57938 1.26380 0.48531 0.71607 -1.03126 0.60477
H 7.68344 2.21324 0.58059 -0.00884 0.43187 -0.30511
H 6.90218 0.99740 11.85267 -0.24258 0.18745 -0.31480
O 11.47240 3.83532 4.73760 0.21815 -0.24748 -0.07101
H 11.74720 4.07312 5.63624 -0.09742 0.14419 0.33671
H 0.32635 3.59804 4.31493 -0.29911 -0.05500 -0.02554
O 11.53554 1.36406 11.71986 -0.21003 0.14180 -0.63463
H 11.29619 2.28897 11.42004 0.12896 -0.39890 0.24618
H 11.79950 1.43617 0.64880 0.10763 0.07742 0.47570
O 3.63736 4.50306 8.38918 0.18927 -0.29407 -0.10942
H 3.27531 5.35224 8.66648 -0.40342 0.42717 0.09596
H 4.57721 4.60671 8.60682 0.23722 -0.20009 0.00772
O 2.65801 2.41440 3.06865 0.25628 -0.41977 0.23697
H 2.95510 1.71277 3.69587 -0.15247 0.45991 -0.25952
H 2.60879 3.26300 3.56252 -0.00358 -0.11175 -0.00305
O 5.71461 2.64693 2.26182 -0.65249 -0.36803 -0.50267
H 6.35918 1.97710 1.93798 0.01048 0.02762 0.23298
H 5.04941 2.67015 1.52288 0.39215 0.02140 0.70124
O 1.21482 7.35361 1.01615 0.91915 -0.20133 0.03658
H 0.48486 7.35505 0.38885 -0.56709 0.10921 -0.07263
H 0.94706 7.64638 1.89993 -0.35909 0.09074 0.03414
O 6.23959 10.16208 5.14321 -0.28170 -0.10417 0.19259
H 5.61901 9.71248 5.78212 0.32117 0.16173 -0.31105
H 6.97405 9.53879 4.98564 -0.00405 -0.01795 0.03676
O 2.13558 11.99895 10.97902 -0.19415 0.03175 -0.09840
H 3.01285 11.97766 11.33473 0.33765 0.14482 0.45707
H 1.51069 11.63498 11.61859 0.17516 0.05915 0.03958
O 11.83254 8.36797 7.88885 0.54221 -1.38960 1.19870
H 11.08572 8.74179 8.40642 0.93854 -0.91006 -0.15539
H 0.22803 7.44656 8.12289 -1.40978 2.64995 -0.16476
O 4.74006 8.25707 0.87324 -0.42540 0.23574 -0.27710
H 4.99819 8.52431 1.76749 0.12435 0.00768 0.30430
H 4.29186 9.04940 0.50136 0.06129 -0.42291 0.15761
O 6.77090 3.40389 7.37337 -0.29000 1.65313 -1.21740
H 6.70320 4.22580 7.88362 -0.13723 0.02919 -0.19037
H 6.99747 2.78301 8.05406 1.03685 -0.95115 0.11026
O 8.77522 1.93940 3.58161 2.83613 0.43430 -1.29414
H 9.68733 2.33671 3.76873 -1.76691 -0.32959 0.47199
H 8.70395 2.32287 2.66579 -0.54100 -0.48075 0.74124
O 4.77062 5.35126 2.76618 -0.08521 -0.28842 0.34883
H 5.15212 5.78114 1.98094 0.12023 -0.07866 -0.09712
H 5.13387 4.43315 2.85319 -0.05744 0.46627 -0.18822
O 9.18213 0.61003 3.33306 -0.00393 0.52892 -0.08344
H 9.21464 0.21297 4.19938 -0.46789 -0.44388 0.77983
H 10.13724 0.67262 3.17233 -0.12834 0.16574 -0.54011
O 5.24839 2.19656 10.79113 -0.37599 -0.32685 -0.86512
H 5.70796 2.08053 11.63270 0.11186 -0.04348 0.36591
H 5.44101 1.39865 10.24933 -0.06462 0.32860 0.26513
O 3.66246 0.16017 8.12791 -0.31924 0.01404 0.30405
H 3.38641 11.40159 7.58803 -0.00022 -0.09265 -0.09543
H 4.44786 0.53015 7.70588 0.32033 0.11870 -0.19994
O 1.60909 5.00031 3.42852 0.31770 -0.41720 -1.08055
H 0.80491 4.75476 2.91803 0.26190 0.31576 0.35352
H 1.38215 5.46690 4.23344 -0.43651 0.37174 0.57218
O 6.06042 10.53688 8.27401 -0.21811 -0.94061 -0.55223
H 6.53908 11.33244 8.50630 0.21363 0.66532 0.44456
H 5.35687 10.33102 8.91564 0.12264 0.26266 0.12194
O 9.53631 8.29777 11.31358 0.05259 0.63156 -0.42995
H 9.40418 8.89974 10.54237 0.11543 -0.32425 0.43746
H 8.84384 7.62329 11.23401 -0.18110 -0.21778 -0.00868
O 9.46646 8.31718 5.27078 -0.33931 0.76203 -0.32966
H 9.07999 9.13115 4.86103 0.04637 -0.48014 0.46906
H 10.28757 8.24122 4.75501 0.32143 -0.27720 -0.04663
O 11.40694 9.71949 3.76871 0.03770 0.25279 -1.04550
H 11.93129 9.97662 2.96014 -0.47667 -0.32192 0.83858
H 0.03948 9.61952 4.49662 0.29673 0.03776 0.26571
O 3.90631 6.40210 10.60635 0.29971 0.36102 0.34478
H 3.12017 6.95337 10.44629 -0.18652 -0.31459 -0.14590
H 4.46188 7.02256 11.13320 -0.00653 -0.36347 -0.08769
O 2.53313 8.76724 9.53985 0.03425 0.23211 0.10749
H 2.89952 8.55241 10.41878 -0.11062 0.11017 -0.04197
H 2.82353 9.68574 9.38568 -0.04013 -0.00674 -0.12679
O 8.04351 8.20476 7.68093 -0.21615 0.21221 0.24465
H 7.28187 8.69413 8.06524 0.19192 -0.06009 -0.09108
H 7.65936 7.59820 7.02425 -0.13049 -0.03535 -0.11071
O 8.87015 5.59026 0.39704 -0.10045 0.46761 0.27570
H 8.42659 6.31581 0.89509 0.23698 -0.19305 -0.22529
H 8.12608 5.08046 0.00903 -0.01076 -0.10602 0.00370
O 10.54790 3.80775 1.99883 -0.23288 -0.43270 0.89196
H 10.86336 2.95957 2.39563 0.01053 0.26988 -0.20788
H 11.09456 3.97239 1.20975 0.20598 0.03838 -0.39288
O 6.52549 4.08803 0.21479 -0.37594 0.48681 0.65076
H 5.93866 4.49117 0.89518 -0.00075 0.25719 -0.59823
H 6.95007 3.44175 0.80777 0.35282 -0.07367 -0.26754
O 9.50323 5.67831 6.88479 0.29773 0.52173 0.45748
H 10.38426 6.05944 7.08352 -0.01126 -0.24637 -0.24311
H 8.94762 6.21451 7.48948 -0.14275 -0.26358 -0.17163
O 10.28171 6.20768 3.30902 0.45484 0.26972 0.49911
H 10.58631 6.14727 2.39419 0.12066 0.03478 -0.38157
H 11.05834 5.94765 3.85084 -0.29378 -0.01976 -0.08244
O 3.26885 7.67967 3.76927 -0.38449 0.55608 -1.05774
H 2.99465 8.22165 2.97585 0.24706 -0.69055 0.72358
H 3.58678 8.35518 4.38808 0.19318 0.10137 0.33763
157
Lattice="12.000000 0.000000 0.000000 0.000000 12.000000 0.000000 0.000000 0.000000 12.000000" Properties=species:S:1:pos:R:3:dft_forces:R:3 dft_energy=-5876.21330950
Zn 7.32092 4.73375 1.91927 0.23003 -0.33722 0.16803
O 9.84059 11.42876 1.50421 0.22738 -0.56494 -0.13131
H 10.42287 11.25359 0.73618 -0.18571 0.07021 0.07857
H 10.30492 11.00212 2.24722 -0.01303 -0.01301 0.10530
O 0.61093 9.75145 1.99970 -0.32069 0.32087 0.00728
H 1.42052 10.04892 1.56182 0.23875 -0.01032 -0.25495
H 0.83999 8.95944 2.50811 0.05119 -0.34181 0.08988
O 7.34373 7.87457 4.34131 -0.32927 0.02458 -0.05991
H 6.52193 7.80074 4.89466 0.35518 0.04836 -0.11953
H 8.10088 7.90647 4.95484 0.05022 0.01010 0.12326
O 6.88463 4.72567 6.03176 0.80370 -0.92517 -1.47195
H 6.70359 3.95633 5.45050 -0.54027 0.97243 0.45596
H 6.16650 5.25301 6.33930 -1.05893 0.19800 0.46069
O 2.31468 7.77545 6.75277 0.89273 0.42348 -0.17013
H 2.38598 8.70931 7.02049 0.19262 -0.04720 0.16348
H 2.78731 7.20058 7.39551 -0.12498 0.47757 -0.16342
O 7.37131 11.75347 10.80282 -0.30663 -0.16158 -0.12433
H 6.60354 0.10086 11.31192 0.27965 -0.19741 -0.15060
H 7.02934 11.51915 9.90932 0.10039 0.11623 0.40990
O 4.48566 2.68721 5.37145 -1.32135 -0.26395 1.05232
H 4.60744 3.53125 4.93376 0.30099 0.68848 -0.51506
H 3.63755 2.85349 5.88413 0.95982 -0.42899 -0.54885
O 5.08199 7.31504 6.00336 -0.48103 0.01943 -0.42874
H 4.28033 7.86952 5.85496 0.29559 -0.07238 0.21172
H 4.98198 6.63322 5.31122 0.05935 -0.12982 0.06815
O 10.11182 11.06419 9.61844 -0.08871 0.51680 0.39653
H 9.82289 11.80279 10.20651 0.04880 -0.42668 -0.29058
H 11.07049 11.20634 9.51621 0.07064 0.02472 -0.03741
O 1.25314 6.49482 10.17709 0.18184 0.11403 0.36431
H 1.08515 6.59893 11.13937 -0.12151 -0.06772 -0.26547
H 2.18359 6.78412 10.09851 -0.08452 -0.05784 -0.17245
O 1.29754 2.81966 5.59816 0.08524 0.42984 -0.09777
H 0.92139 3.72619 5.49392 0.08668 -0.53574 0.08194
H 0.57810 2.16315 5.45487 -0.05531 0.14597 0.06421
O 1.88244 3.23150 10.84437 -0.53378 0.34777 0.22659
H 2.57812 3.62350 10.29546 0.18185 0.11712 -0.11996
H 1.62176 3.92921 11.49165 0.12849 -0.35811 -0.40047
O 1.43804 11.37082 8.34850 0.05354 0.32350 -0.09625
H 1.58367 11.75328 11.63687 -0.21366 -0.30363 0.30358
H 1.73924 0.23237 7.91572 -0.20122 -0.20874 0.12184
O 8.34418 2.14662 9.75588 0.24050 -0.55762 0.26996
H 8.58253 1.33407 10.27015 -0.46982 0.26757 -0.14074
H 9.24085 2.43801 9.48439 0.10863 0.31413 -0.21192
O 11.20194 0.90229 6.10724 -0.72420 0.31170 -0.10898
H 11.44106 0.19779 5.47864 -0.03289 -0.08965 -0.10416
H 10.30521 1.23460 5.82948 0.73316 -0.31042 0.17757
O 2.12862 10.84103 4.16034 -0.33638 -0.11589 -0.47871
H 11.49985 9.65115 8.75779 2.23022 -2.07484 -2.61756
H 1.62653 10.51256 3.31429 0.27359 0.23686 0.61705
O 11.80171 0.81828 2.92852 0.46170 -0.05609 0.17300
H 10.37916 3.97237 11.44423 0.04476 -0.01876 0.07800
H 0.76676 0.55022 3.08341 -0.33964 0.07142 -0.02793
O 9.21199 5.49596 9.56518 -0.02543 0.08822 -0.06657
H 8.84780 5.43829 8.66224 -0.03073 -0.04213 -0.04019
H 9.39495 6.44196 9.71027 0.00239 -0.01533 0.01318
O 11.04248 2.17509 9.27478 0.22611 -0.29020 -0.74561
H 11.68741 2.54609 9.88467 0.34205 0.30034 0.52909
H 11.58034 1.97167 8.48174 -0.29608 -0.01297 0.08818
O 4.83741 11.32943 0.67170 -0.11337 0.16931 -0.53545
H 5.17931 11.00554 1.51217 0.13653 -0.10332 0.44639
H 3.97073 11.73837 0.84795 0.04150 -0.02988 0.05250
O 7.11104 0.63392 6.77781 0.23551 -0.04243 0.23830
H 8.04463 0.88099 6.60810 -0.21316 -0.08681 0.10553
H 7.11151 0.19439 7.65378 -0.02420 0.10001 -0.19713
O 8.53971 1.66704 1.15482 -0.24836 0.92030 0.07944
H 8.63485 2.65174 1.27476 -0.20411 -0.52683 -0.05069
H 9.44137 1.38442 0.89305 0.18437 -0.14087 -0.07342
O 10.28738 3.62620 6.16782 0.09762 0.09713 -0.09704
H 9.49654 3.95842 5.70590 0.11007 0.00087 -0.08500
H 11.04014 4.06383 5.72803 0.00240 -0.02427 0.04333
O 11.24992 1.33786 0.16767 0.70674 0.43257 0.58453
H 11.00796 2.26187 11.92698 -0.09933 0.05014 -0.18133
H 11.86979 1.48234 0.93849 -0.51755 -0.34231 -0.53632
O 4.09222 4.29536 8.35560 -0.57590 -0.17323 0.57730
H 3.33287 3.70100 8.59257 0.68499 0.40056 -0.42141
H 4.45351 4.04040 7.49125 -0.06276 -0.22206 -0.21321
O 2.81811 2.64993 1.13822 -0.23052 -0.28827 0.80926
H 2.33716 2.39510 1.96287 0.13976 0.08986 -0.48054
H 3.76611 2.64762 1.42109 0.07460 -0.14972 -0.08182
O 5.36475 2.12951 2.04414 -0.24623 -0.41005 -0.31614
H 5.68428 2.63385 2.80224 0.32415 0.25732 0.24863
H 6.07098 2.03583 1.37978 0.11409 0.11743 0.13743
O 2.31076 7.61653 0.60182 0.19569 -0.31816 1.00275
H 2.93604 8.17670 1.11116 -0.09200 0.22096 -0.33037
H 2.31161 6.82581 1.20089 -0.25563 0.23640 -0.56638
O 4.81903 11.64991 4.94084 -0.13208 -0.18343 0.03746
H 4.75269 10.75583 5.33840 0.06309 0.20840 -0.14226
H 3.89832 11.89075 4.70229 0.11905 -0.05823 -0.01462
O 2.23162 0.33394 11.26155 0.10611 0.43439 -0.03075
H 2.31985 1.09892 11.83655 0.12911 -0.09138 0.22781
H 1.82890 0.69156 10.47899 -0.02845 -0.03405 -0.47667
O 11.94149 8.99221 8.04784 -0.63833 2.38861 5.66142