8
Lattice="10.000000 0.000000 0.000000 0.000000 10.000000 0.000000 0.000000 0.000000 10.000000" Properties=species:S:1:pos:R:3 dft_energy=-6224.24221431
C 4.48992 4.14477 5.25774 
C 5.16409 5.38659 4.87758 
O 5.02071 6.25894 5.96610 
O 5.71387 5.62817 3.81013 
H 5.25244 3.36403 5.25361 
H 3.73896 3.80662 4.52961 
H 4.00810 4.32827 6.24981 
H 5.43600 7.10334 5.76763 
8
Lattice="10.000000 0.000000 0.000000 0.000000 10.000000 0.000000 0.000000 0.000000 10.000000" Properties=species:S:1:pos:R:3 dft_energy=-6224.24412763
C 4.48771 4.14619 5.25340 
C 5.16478 5.38644 4.88374 
O 5.01921 6.26203 5.96609 
O 5.71619 5.62496 3.80931 
H 5.25234 3.37880 5.26986 
H 3.74238 3.79152 4.53083 
H 4.00694 4.31491 6.22708 
H 5.44385 7.10010 5.76734 
8
Lattice="10.000000 0.000000 0.000000 0.000000 10.000000 0.000000 0.000000 0.000000 10.000000" Properties=species:S:1:pos:R:3 dft_energy=-6224.23004554
C 4.48515 4.14743 5.24915 
C 5.16548 5.38695 4.88973 
O 5.01781 6.26503 5.96591 
O 5.71825 5.62188 3.80863 
H 5.25278 3.39223 5.28724 
H 3.74552 3.77705 4.53152 
H 4.00554 4.30136 6.20398 
H 5.45240 7.09755 5.76578 
8
Lattice="10.000000 0.000000 0.000000 0.000000 10.000000 0.000000 0.000000 0.000000 10.000000" Properties=species:S:1:pos:R:3 dft_energy=-6224.20307126
C 4.48250 4.14840 5.24498 
C 5.16631 5.38787 4.89534 
O 5.01629 6.26784 5.96558 
O 5.72008 5.61877 3.80826 
H 5.25467 3.40367 5.30545 
H 3.74869 3.76310 4.53171 
H 4.00299 4.28721 6.18232 
H 5.46156 7.09608 5.76368 
8
Lattice="10.000000 0.000000 0.000000 0.000000 10.000000 0.000000 0.000000 0.000000 10.000000" Properties=species:S:1:pos:R:3 dft_energy=-6224.16912407
C 4.47990 4.14927 5.24073 
C 5.16737 5.38920 4.90052 
O 5.01497 6.27052 5.96510 
O 5.72191 5.61571 3.80812 
H 5.25845 3.41289 5.32382 
H 3.75195 3.74943 4.53099 
H 3.99983 4.27301 6.16364 
H 5.47137 7.09465 5.76039 
8
Lattice="10.000000 0.000000 0.000000 0.000000 10.000000 0.000000 0.000000 0.000000 10.000000" Properties=species:S:1:pos:R:3 dft_energy=-6224.13743505
C 4.47716 4.14980 5.23644 
C 5.16851 5.39105 4.90524 
O 5.01362 6.27304 5.96455 
O 5.72367 5.61269 3.80847 
H 5.26308 3.41946 5.34261 
H 3.75596 3.73636 4.52915 
H 3.99537 4.25923 6.14908 
H 5.48135 7.09343 5.75662 
8
Lattice="10.000000 0.000000 0.000000 0.000000 10.000000 0.000000 0.000000 0.000000 10.000000" Properties=species:S:1:pos:R:3 dft_energy=-6224.11629076
C 4.47423 4.14995 5.23203 
C 5.16973 5.39315 4.90945 
O 5.01210 6.27543 5.96359 
O 5.72532 5.60971 3.80938 
H 5.26902 3.42438 5.36222 
H 3.76118 3.72452 4.52607 
H 3.98886 4.24617 6.13923 
H 5.49175 7.09212 5.75211 
8
Lattice="10.000000 0.000000 0.000000 0.000000 10.000000 0.000000 0.000000 0.000000 10.000000" Properties=species:S:1:pos:R:3 dft_energy=-6224.11169443
C 4.47144 4.14988 5.22752 
C 5.17110 5.39576 4.91310 
O 5.01073 6.27786 5.96234 
O 5.72690 5.60676 3.81104 
H 5.27488 3.42737 5.38201 
H 3.76696 3.71350 4.52150 
H 3.97950 4.23364 6.13508 
H 5.50168 7.09140 5.74710 
8
Lattice="10.000000 0.000000 0.000000 0.000000 10.000000 0.000000 0.000000 0.000000 10.000000" Properties=species:S:1:pos:R:3 dft_energy=-6224.11886101
C 4.46858 4.14968 5.22287 
C 5.17237 5.39897 4.91604 
O 5.00969 6.28013 5.96086 
O 5.72828 5.60383 3.81312 
H 5.28078 3.42876 5.40070 
H 3.77378 3.70273 4.51597 
H 3.96757 4.22069 6.13618 
H 5.51134 7.09073 5.74142 
8
Lattice="10.000000 0.000000 0.000000 0.000000 10.000000 0.000000 0.000000 0.000000 10.000000" Properties=species:S:1:pos:R:3 dft_energy=-6224.12814330
C 4.46572 4.14936 5.21825 
C 5.17352 5.40248 4.91841 
O 5.00889 6.28242 5.95929 
O 5.72957 5.60088 3.81552 
H 5.28672 3.42870 5.41949 
H 3.78112 3.69278 4.50898 
H 3.95353 4.20829 6.14157 
H 5.52131 7.09012 5.73392 
8
Lattice="10.000000 0.000000 0.000000 0.000000 10.000000 0.000000 0.000000 0.000000 10.000000" Properties=species:S:1:pos:R:3 dft_energy=-6224.13375471
C 4.46298 4.14850 5.21372 
C 5.17457 5.40625 4.92032 
O 5.00828 6.28460 5.95758 
O 5.73075 5.59783 3.81843 
H 5.29170 3.42763 5.43736 
H 3.78932 3.68440 4.49973 
H 3.93790 4.19645 6.15052 
H 5.53133 7.08892 5.72594 
8
Lattice="10.000000 0.000000 0.000000 0.000000 10.000000 0.000000 0.000000 0.000000 10.000000" Properties=species:S:1:pos:R:3 dft_energy=-6224.13045851
C 4.46039 4.14726 5.20972 
C 5.17571 5.41055 4.92172 
O 5.00783 6.28698 5.95590 
O 5.73189 5.59504 3.82193 
H 5.29546 3.42605 5.45425 
H 3.79893 3.67665 4.48942 
H 3.92181 4.18599 6.16179 
H 5.54122 7.08739 5.71852 
8
Lattice="10.000000 0.000000 0.000000 0.000000 10.000000 0.000000 0.000000 0.000000 10.000000" Properties=species:S:1:pos:R:3 dft_energy=-6224.11725455
C 4.45776 4.14537 5.20580 
C 5.17681 5.41482 4.92230 
O 5.00752 6.28904 5.95382 
O 5.73281 5.59220 3.82563 
H 5.29749 3.42435 5.46958 
H 3.80917 3.66972 4.47723 
H 3.90536 4.17629 6.17293 
H 5.55054 7.08459 5.71091 
8
Lattice="10.000000 0.000000 0.000000 0.000000 10.000000 0.000000 0.000000 0.000000 10.000000" Properties=species:S:1:pos:R:3 dft_energy=-6224.09845742
C 4.45513 4.14312 5.20244 
C 5.17811 5.41926 4.92249 
O 5.00744 6.29127 5.95167 
O 5.73368 5.58974 3.83010 
H 5.29786 3.42318 5.48389 
H 3.82004 3.66370 4.46328 
H 3.88922 4.16798 6.18320 
H 5.55954 7.08146 5.70363 
8
Lattice="10.000000 0.000000 0.000000 0.000000 10.000000 0.000000 0.000000 0.000000 10.000000" Properties=species:S:1:pos:R:3 dft_energy=-6224.08105810
C 4.45264 4.14027 5.19948 
C 5.17924 5.42361 4.92214 
O 5.00751 6.29345 5.94924 
O 5.73459 5.58745 3.83487 
H 5.29565 3.42338 5.49662 
H 3.83181 3.65840 4.44699 
H 3.87359 4.16052 6.19069 
H 5.56831 7.07764 5.69675 
8
Lattice="10.000000 0.000000 0.000000 0.000000 10.000000 0.000000 0.000000 0.000000 10.000000" Properties=species:S:1:pos:R:3 dft_energy=-6224.06985725
C 4.45024 4.13700 5.19725 
C 5.18009 5.42779 4.92156 
O 5.00780 6.29553 5.94679 
O 5.73538 5.58524 3.84006 
H 5.29106 3.42418 5.50761 
H 3.84479 3.65343 4.43010 
H 3.85863 4.15400 6.19478 
H 5.57610 7.07190 5.69002 
8
Lattice="10.000000 0.000000 0.000000 0.000000 10.000000 0.000000 0.000000 0.000000 10.000000" Properties=species:S:1:pos:R:3 dft_energy=-6224.07061285
C 4.44811 4.13337 5.19568 
C 5.18074 5.43202 4.92044 
O 5.00849 6.29786 5.94407 
O 5.73608 5.58319 3.84555 
H 5.28445 3.42612 5.51638 
H 3.85873 3.64967 4.41263 
H 3.84488 4.14899 6.19434 
H 5.58276 7.06498 5.68327 
8
Lattice="10.000000 0.000000 0.000000 0.000000 10.000000 0.000000 0.000000 0.000000 10.000000" Properties=species:S:1:pos:R:3 dft_energy=-6224.08163612
C 4.44601 4.12937 5.19488 
C 5.18102 5.43591 4.91918 
O 5.00948 6.30031 5.94134 
O 5.73655 5.58132 3.85132 
H 5.27682 3.42866 5.52290 
H 3.87370 3.64725 4.39454 
H 3.83280 4.14513 6.18952 
H 5.58883 7.05760 5.67654 
8
Lattice="10.000000 0.000000 0.000000 0.000000 10.000000 0.000000 0.000000 0.000000 10.000000" Properties=species:S:1:pos:R:3 dft_energy=-6224.10178804
C 4.44388 4.12522 5.19493 
C 5.18097 5.43952 4.91771 
O 5.01064 6.30288 5.93840 
O 5.73692 5.57965 3.85712 
H 5.26829 3.43116 5.52762 
H 3.88935 3.64622 4.37702 
H 3.82225 4.14242 6.18034 
H 5.59332 7.05014 5.67071 
8
Lattice="10.000000 0.000000 0.000000 0.000000 10.000000 0.000000 0.000000 0.000000 10.000000" Properties=species:S:1:pos:R:3 dft_energy=-6224.12898632
C 4.44189 4.12101 5.19561 
C 5.18061 5.44265 4.91603 
O 5.01198 6.30556 5.93540 
O 5.73736 5.57823 3.86298 
H 5.25910 3.43331 5.53038 
H 3.90573 3.64627 4.35980 
H 3.81326 4.14084 6.16604 
H 5.59681 7.04313 5.66608 
8
Lattice="10.000000 0.000000 0.000000 0.000000 10.000000 0.000000 0.000000 0.000000 10.000000" Properties=species:S:1:pos:R:3 dft_energy=-6224.15749674
C 4.43977 4.11688 5.19675 
C 5.17991 5.44532 4.91438 
O 5.01350 6.30830 5.93234 
O 5.73808 5.57718 3.86876 
H 5.24959 3.43526 5.53195 
H 3.92232 3.64778 4.34255 
H 3.80518 4.14124 6.14711 
H 5.60042 7.03600 5.66237 
8
Lattice="10.000000 0.000000 0.000000 0.000000 10.000000 0.000000 0.000000 0.000000 10.000000" Properties=species:S:1:pos:R:3 dft_energy=-6224.18268597
C 4.43741 4.11264 5.19819 
C 5.17850 5.44742 4.91293 
O 5.01502 6.31084 5.92929 
O 5.73884 5.57633 3.87457 
H 5.24056 3.43610 5.53231 
H 3.93941 3.65095 4.32595 
H 3.79831 4.14281 6.12429 
H 5.60442 7.02944 5.65902 
8
Lattice="10.000000 0.000000 0.000000 0.000000 10.000000 0.000000 0.000000 0.000000 10.000000" Properties=species:S:1:pos:R:3 dft_energy=-6224.20018060
C 4.43509 4.10870 5.19981 
C 5.17666 5.44891 4.91158 
O 5.01673 6.31331 5.92613 
O 5.73984 5.57567 3.88032 
H 5.23243 3.43625 5.53203 
H 3.95728 3.65557 4.31026 
H 3.79176 4.14510 6.09850 
H 5.61001 7.02440 5.65640 
8
Lattice="10.000000 0.000000 0.000000 0.000000 10.000000 0.000000 0.000000 0.000000 10.000000" Properties=species:S:1:pos:R:3 dft_energy=-6224.20896596
C 4.43279 4.10499 5.20162 
C 5.17439 5.44961 4.91054 
O 5.01844 6.31590 5.92289 
O 5.74108 5.57534 3.88599 
H 5.22492 3.43485 5.53107 
H 3.97524 3.66178 4.29567 
H 3.78426 4.14796 6.07160 
H 5.61600 7.02129 5.65392 
8
Lattice="10.000000 0.000000 0.000000 0.000000 10.000000 0.000000 0.000000 0.000000 10.000000" Properties=species:S:1:pos:R:3 dft_energy=-6224.21020888
C 4.43050 4.10127 5.20333 
C 5.17149 5.44952 4.90957 
O 5.02011 6.31846 5.91950 
O 5.74263 5.57518 3.89143 
H 5.21883 3.43207 5.52959 
H 3.99377 3.66937 4.28262 
H 3.77536 4.15135 6.04503 
H 5.62213 7.01986 5.65099 
8
Lattice="10.000000 0.000000 0.000000 0.000000 10.000000 0.000000 0.000000 0.000000 10.000000" Properties=species:S:1:pos:R:3 dft_energy=-6224.21053456
C 4.42847 4.09755 5.20476 
C 5.16801 5.44872 4.90883 
O 5.02178 6.32084 5.91605 
O 5.74437 5.57519 3.89670 
H 5.21360 3.42722 5.52797 
H 4.01286 3.67804 4.27128 
H 3.76349 4.15543 6.02055 
H 5.62936 7.02069 5.64729 
8
Lattice="10.000000 0.000000 0.000000 0.000000 10.000000 0.000000 0.000000 0.000000 10.000000" Properties=species:S:1:pos:R:3 dft_energy=-6224.21697859
C 4.42678 4.09419 5.20605 
C 5.16397 5.44736 4.90843 
O 5.02339 6.32342 5.91266 
O 5.74655 5.57554 3.90160 
H 5.20988 3.42078 5.52609 
H 4.03083 3.68824 4.26079 
H 3.74814 4.15983 5.99788 
H 5.63681 7.02429 5.64303 
8
Lattice="10.000000 0.000000 0.000000 0.000000 10.000000 0.000000 0.000000 0.000000 10.000000" Properties=species:S:1:pos:R:3 dft_energy=-6224.23431759
C 4.42547 4.09127 5.20719 
C 5.15941 5.44535 4.90844 
O 5.02491 6.32620 5.90944 
O 5.74903 5.57619 3.90619 
H 5.20815 3.41254 5.52418 
H 4.04876 3.69906 4.25174 
H 3.72872 4.16433 5.97793 
H 5.64384 7.02969 5.63884 
8
Lattice="10.000000 0.000000 0.000000 0.000000 10.000000 0.000000 0.000000 0.000000 10.000000" Properties=species:S:1:pos:R:3 dft_energy=-6224.26194169
C 4.42471 4.08863 5.20827 
C 5.15429 5.44242 4.90902 
O 5.02649 6.32902 5.90636 
O 5.75192 5.57698 3.91041 
H 5.20754 3.40275 5.52272 
H 4.06560 3.71009 4.24333 
H 3.70571 4.16898 5.96041 
H 5.65028 7.03536 5.63417 
8
Lattice="10.000000 0.000000 0.000000 0.000000 10.000000 0.000000 0.000000 0.000000 10.000000" Properties=species:S:1:pos:R:3 dft_energy=-6224.29538320
C 4.42435 4.08634 5.20886 
C 5.14881 5.43874 4.90970 
O 5.02816 6.33188 5.90313 
O 5.75509 5.57804 3.91379 
H 5.20724 3.39202 5.52144 
H 4.08168 3.72094 4.23578 
H 3.67907 4.17384 5.94464 
H 5.65581 7.04087 5.62928 
8
Lattice="10.000000 0.000000 0.000000 0.000000 10.000000 0.000000 0.000000 0.000000 10.000000" Properties=species:S:1:pos:R:3 dft_energy=-6224.32767303
C 4.42441 4.08443 5.20951 
C 5.14310 5.43436 4.91108 
O 5.03009 6.33484 5.90006 
O 5.75864 5.57935 3.91703 
H 5.20772 3.38051 5.52162 
H 4.09713 3.73216 4.22880 
H 3.64878 4.17824 5.93084 
H 5.66031 7.04621 5.62498 
8
Lattice="10.000000 0.000000 0.000000 0.000000 10.000000 0.000000 0.000000 0.000000 10.000000" Properties=species:S:1:pos:R:3 dft_energy=-6224.34938852
C 4.42463 4.08263 5.20998 
C 5.13688 5.42930 4.91268 
O 5.03202 6.33788 5.89694 
O 5.76223 5.58068 3.91993 
H 5.20721 3.36854 5.52253 
H 4.11129 3.74306 4.22223 
H 3.61575 4.18209 5.91832 
H 5.66289 7.05106 5.62122 
8
Lattice="10.000000 0.000000 0.000000 0.000000 10.000000 0.000000 0.000000 0.000000 10.000000" Properties=species:S:1:pos:R:3 dft_energy=-6224.35391650
C 4.42500 4.08110 5.21042 
C 5.13025 5.42374 4.91424 
O 5.03417 6.34102 5.89400 
O 5.76612 5.58228 3.92263 
H 5.20584 3.35677 5.52443 
H 4.12494 3.75316 4.21536 
H 3.58240 4.18492 5.90681 
H 5.66384 7.05490 5.61808 
8
Lattice="10.000000 0.000000 0.000000 0.000000 10.000000 0.000000 0.000000 0.000000 10.000000" Properties=species:S:1:pos:R:3 dft_energy=-6224.34032745
C 4.42549 4.07978 5.21076 
C 5.12334 5.41783 4.91608 
O 5.03633 6.34435 5.89113 
O 5.77021 5.58394 3.92511 
H 5.20313 3.34569 5.52754 
H 4.13800 3.76271 4.20848 
H 3.54959 4.18682 5.89553 
H 5.66296 7.05742 5.61608 
8
Lattice="10.000000 0.000000 0.000000 0.000000 10.000000 0.000000 0.000000 0.000000 10.000000" Properties=species:S:1:pos:R:3 dft_energy=-6224.31076948
C 4.42624 4.07865 5.21106 
C 5.11638 5.41160 4.91799 
O 5.03862 6.34791 5.88816 
O 5.77449 5.58586 3.92725 
H 5.19858 3.33559 5.53161 
H 4.14972 3.77160 4.20153 
H 3.51919 4.18799 5.88344 
H 5.66088 7.05868 5.61483 
8
Lattice="10.000000 0.000000 0.000000 0.000000 10.000000 0.000000 0.000000 0.000000 10.000000" Properties=species:S:1:pos:R:3 dft_energy=-6224.26838742
C 4.42689 4.07767 5.21152 
C 5.10958 5.40524 4.92003 
O 5.04086 6.35166 5.88511 
O 5.77888 5.58781 3.92937 
H 5.19210 3.32624 5.53609 
H 4.16017 3.77953 4.19467 
H 3.49174 4.18829 5.86990 
H 5.65754 7.05931 5.61408 
8
Lattice="10.000000 0.000000 0.000000 0.000000 10.000000 0.000000 0.000000 0.000000 10.000000" Properties=species:S:1:pos:R:3 dft_energy=-6224.22045493
C 4.42734 4.07666 5.21218 
C 5.10307 5.39871 4.92208 
O 5.04309 6.35536 5.88210 
O 5.78334 5.58968 3.93140 
H 5.18338 3.31835 5.54161 
H 4.16900 3.78544 4.18875 
H 3.46834 4.18781 5.85434 
H 5.65264 7.05883 5.61274 
8
Lattice="10.000000 0.000000 0.000000 0.000000 10.000000 0.000000 0.000000 0.000000 10.000000" Properties=species:S:1:pos:R:3 dft_energy=-6224.17268043
C 4.42751 4.07587 5.21281 
C 5.09678 5.39235 4.92394 
O 5.04522 6.35910 5.87921 
O 5.78755 5.59170 3.93357 
H 5.17245 3.31223 5.54847 
H 4.17648 3.79048 4.18306 
H 3.44992 4.18667 5.83606 
H 5.64690 7.05824 5.60977 
8
Lattice="10.000000 0.000000 0.000000 0.000000 10.000000 0.000000 0.000000 0.000000 10.000000" Properties=species:S:1:pos:R:3 dft_energy=-6224.13028828
C 4.42723 4.07511 5.21338 
C 5.09101 5.38614 4.92560 
O 5.04735 6.36279 5.87654 
O 5.79172 5.59358 3.93581 
H 5.15889 3.30743 5.55587 
H 4.18270 3.79373 4.17739 
H 3.43700 4.18424 5.81597 
H 5.64160 7.05798 5.60572 
8
Lattice="10.000000 0.000000 0.000000 0.000000 10.000000 0.000000 0.000000 0.000000 10.000000" Properties=species:S:1:pos:R:3 dft_energy=-6224.09562865
C 4.42667 4.07441 5.21403 
C 5.08583 5.38035 4.92721 
O 5.04926 6.36634 5.87408 
O 5.79582 5.59528 3.93813 
H 5.14346 3.30448 5.56410 
H 4.18747 3.79575 4.17256 
H 3.42951 4.18054 5.79400 
H 5.63679 7.05796 5.60084 
8
Lattice="10.000000 0.000000 0.000000 0.000000 10.000000 0.000000 0.000000 0.000000 10.000000" Properties=species:S:1:pos:R:3 dft_energy=-6224.07048344
C 4.42572 4.07374 5.21460 
C 5.08135 5.37500 4.92862 
O 5.05086 6.36960 5.87178 
O 5.79970 5.59672 3.94050 
H 5.12670 3.30349 5.57327 
H 4.19079 3.79676 4.16883 
H 3.42725 4.17570 5.77030 
H 5.63255 7.05839 5.59407 
8
Lattice="10.000000 0.000000 0.000000 0.000000 10.000000 0.000000 0.000000 0.000000 10.000000" Properties=species:S:1:pos:R:3 dft_energy=-6224.05431654
C 4.42455 4.07302 5.21497 
C 5.07772 5.37029 4.92963 
O 5.05229 6.37244 5.86955 
O 5.80342 5.59794 3.94300 
H 5.10901 3.30404 5.58348 
H 4.19315 3.79680 4.16620 
H 3.42978 4.16993 5.74566 
H 5.62996 7.05975 5.58525 
8
Lattice="10.000000 0.000000 0.000000 0.000000 10.000000 0.000000 0.000000 0.000000 10.000000" Properties=species:S:1:pos:R:3 dft_energy=-6224.04162210
C 4.42284 4.07219 5.21530 
C 5.07467 5.36628 4.93055 
O 5.05329 6.37491 5.86754 
O 5.80682 5.59876 3.94584 
H 5.09050 3.30583 5.59385 
H 4.19471 3.79601 4.16508 
H 3.43606 4.16282 5.72065 
H 5.62883 7.06190 5.57466 
8
Lattice="10.000000 0.000000 0.000000 0.000000 10.000000 0.000000 0.000000 0.000000 10.000000" Properties=species:S:1:pos:R:3 dft_energy=-6224.02522901
C 4.42073 4.07162 5.21530 
C 5.07241 5.36316 4.93113 
O 5.05387 6.37740 5.86561 
O 5.80993 5.59962 3.94896 
H 5.07193 3.30835 5.60503 
H 4.19589 3.79393 4.16420 
H 3.44421 4.15538 5.69561 
H 5.62868 7.06518 5.56245 
8
Lattice="10.000000 0.000000 0.000000 0.000000 10.000000 0.000000 0.000000 0.000000 10.000000" Properties=species:S:1:pos:R:3 dft_energy=-6224.00326123
C 4.41840 4.07096 5.21509 
C 5.07125 5.36059 4.93155 
O 5.05415 6.37942 5.86386 
O 5.81290 5.60024 3.95249 
H 5.05402 3.31108 5.61728 
H 4.19704 3.78999 4.16389 
H 3.45288 4.14767 5.67151 
H 5.62961 7.06924 5.54813 
8
Lattice="10.000000 0.000000 0.000000 0.000000 10.000000 0.000000 0.000000 0.000000 10.000000" Properties=species:S:1:pos:R:3 dft_energy=-6223.97527598
C 4.41577 4.07034 5.21447 
C 5.07076 5.35888 4.93169 
O 5.05406 6.38102 5.86215 
O 5.81552 5.60072 3.95623 
H 5.03712 3.31349 5.63052 
H 4.19809 3.78546 4.16423 
H 3.46070 4.14043 5.64916 
H 5.63133 7.07364 5.53135 
8
Lattice="10.000000 0.000000 0.000000 0.000000 10.000000 0.000000 0.000000 0.000000 10.000000" Properties=species:S:1:pos:R:3 dft_energy=-6223.94395611
C 4.41318 4.06976 5.21332 
C 5.07108 5.35768 4.93145 
O 5.05389 6.38218 5.86055 
O 5.81801 5.60102 3.96020 
H 5.02153 3.31577 5.64468 
H 4.19922 3.78071 4.16598 
H 3.46655 4.13375 5.62924 
H 5.63365 7.07718 5.51352 
8
Lattice="10.000000 0.000000 0.000000 0.000000 10.000000 0.000000 0.000000 0.000000 10.000000" Properties=species:S:1:pos:R:3 dft_energy=-6223.92161739
C 4.41049 4.06920 5.21164 
C 5.07214 5.35737 4.93097 
O 5.05358 6.38328 5.85924 
O 5.82007 5.60110 3.96458 
H 5.00699 3.31804 5.66049 
H 4.20100 3.77533 4.16891 
H 3.46862 4.12718 5.61234 
H 5.63561 7.07935 5.49533 
8
Lattice="10.000000 0.000000 0.000000 0.000000 10.000000 0.000000 0.000000 0.000000 10.000000" Properties=species:S:1:pos:R:3 dft_energy=-6223.91879391
C 4.40783 4.06863 5.20928 
C 5.07392 5.35773 4.93020 
O 5.05309 6.38425 5.85799 
O 5.82171 5.60097 3.96915 
H 4.99382 3.31993 5.67784 
H 4.20283 3.76906 4.17236 
H 3.46657 4.12189 5.59920 
H 5.63679 7.07918 5.47652 
8
Lattice="10.000000 0.000000 0.000000 0.000000 10.000000 0.000000 0.000000 0.000000 10.000000" Properties=species:S:1:pos:R:3 dft_energy=-6223.94186551
C 4.40528 4.06840 5.20645 
C 5.07647 5.35868 4.92932 
O 5.05240 6.38515 5.85679 
O 5.82309 5.60066 3.97392 
H 4.98243 3.32105 5.69620 
H 4.20471 3.76113 4.17647 
H 3.45933 4.11820 5.58999 
H 5.63707 7.07663 5.45736 
8
Lattice="10.000000 0.000000 0.000000 0.000000 10.000000 0.000000 0.000000 0.000000 10.000000" Properties=species:S:1:pos:R:3 dft_energy=-6223.98727751
C 4.40297 4.06821 5.20315 
C 5.07993 5.36010 4.92833 
O 5.05176 6.38576 5.85557 
O 5.82461 5.60003 3.97886 
H 4.97297 3.32136 5.71543 
H 4.20683 3.75149 4.18025 
H 3.44668 4.11580 5.58391 
H 5.63615 7.07141 5.43838 
8
Lattice="10.000000 0.000000 0.000000 0.000000 10.000000 0.000000 0.000000 0.000000 10.000000" Properties=species:S:1:pos:R:3 dft_energy=-6224.04064466
C 4.40053 4.06780 5.19937 
C 5.08374 5.36220 4.92712 
O 5.05076 6.38635 5.85438 
O 5.82584 5.59920 3.98358 
H 4.96496 3.32124 5.73534 
H 4.20941 3.74051 4.18316 
H 3.43002 4.11544 5.58048 
H 5.63362 7.06415 5.41938 
8
Lattice="10.000000 0.000000 0.000000 0.000000 10.000000 0.000000 0.000000 0.000000 10.000000" Properties=species:S:1:pos:R:3 dft_energy=-6224.08925917
C 4.39835 4.06737 5.19550 
C 5.08802 5.36494 4.92605 
O 5.04980 6.38691 5.85326 
O 5.82714 5.59829 3.98819 
H 4.95766 3.32123 5.75514 
H 4.21306 3.72788 4.18505 
H 3.41107 4.11730 5.57970 
H 5.62948 7.05479 5.40090 
8
Lattice="10.000000 0.000000 0.000000 0.000000 10.000000 0.000000 0.000000 0.000000 10.000000" Properties=species:S:1:pos:R:3 dft_energy=-6224.12400074
C 4.39613 4.06708 5.19160 
C 5.09289 5.36807 4.92514 
O 5.04874 6.38715 5.85233 
O 5.82846 5.59720 3.99266 
H 4.95173 3.32273 5.77416 
H 4.21673 3.71403 4.18589 
H 3.39040 4.12067 5.58061 
H 5.62350 7.04385 5.38324 
8
Lattice="10.000000 0.000000 0.000000 0.000000 10.000000 0.000000 0.000000 0.000000 10.000000" Properties=species:S:1:pos:R:3 dft_energy=-6224.14025643
C 4.39370 4.06654 5.18765 
C 5.09805 5.37133 4.92448 
O 5.04734 6.38720 5.85147 
O 5.82947 5.59590 3.99702 
H 4.94640 3.32584 5.79205 
H 4.22067 3.69867 4.18541 
H 3.36914 4.12542 5.58358 
H 5.61582 7.03206 5.36713 
8
Lattice="10.000000 0.000000 0.000000 0.000000 10.000000 0.000000 0.000000 0.000000 10.000000" Properties=species:S:1:pos:R:3 dft_energy=-6224.13617862
C 4.39112 4.06614 5.18362 
C 5.10351 5.37508 4.92393 
O 5.04610 6.38722 5.85047 
O 5.83054 5.59446 4.00098 
H 4.94197 3.33051 5.80866 
H 4.22517 3.68217 4.18346 
H 3.34846 4.13233 5.58710 
H 5.60713 7.01957 5.35224 
8
Lattice="10.000000 0.000000 0.000000 0.000000 10.000000 0.000000 0.000000 0.000000 10.000000" Properties=species:S:1:pos:R:3 dft_energy=-6224.11511819
C 4.38806 4.06592 5.17969 
C 5.10888 5.37906 4.92373 
O 5.04474 6.38733 5.84967 
O 5.83163 5.59303 4.00471 
H 4.93773 3.33676 5.82388 
H 4.23034 3.66410 4.18025 
H 3.33016 4.14089 5.59018 
H 5.59757 7.00739 5.33858 
8
Lattice="10.000000 0.000000 0.000000 0.000000 10.000000 0.000000 0.000000 0.000000 10.000000" Properties=species:S:1:pos:R:3 dft_energy=-6224.08440215
C 4.38462 4.06569 5.17594 
C 5.11401 5.38295 4.92398 
O 5.04329 6.38719 5.84925 
O 5.83284 5.59128 4.00818 
H 4.93332 3.34450 5.83829 
H 4.23604 3.64450 4.17620 
H 3.31586 4.15046 5.59233 
H 5.58821 6.99604 5.32632 
8
Lattice="10.000000 0.000000 0.000000 0.000000 10.000000 0.000000 0.000000 0.000000 10.000000" Properties=species:S:1:pos:R:3 dft_energy=-6224.05319825
C 4.38105 4.06542 5.17206 
C 5.11908 5.38680 4.92466 
O 5.04178 6.38704 5.84865 
O 5.83441 5.58941 4.01116 
H 4.92814 3.35404 5.85071 
H 4.24246 3.62411 4.17186 
H 3.30667 4.16081 5.59247 
H 5.57900 6.98627 5.31428 
8
Lattice="10.000000 0.000000 0.000000 0.000000 10.000000 0.000000 0.000000 0.000000 10.000000" Properties=species:S:1:pos:R:3 dft_energy=-6224.02911652
C 4.37716 4.06495 5.16836 
C 5.12387 5.39029 4.92583 
O 5.04001 6.38671 5.84826 
O 5.83604 5.58731 4.01358 
H 4.92148 3.36568 5.86116 
H 4.24941 3.60282 4.16783 
H 3.30250 4.17166 5.59082 
H 5.56999 6.97818 5.30364 
8
Lattice="10.000000 0.000000 0.000000 0.000000 10.000000 0.000000 0.000000 0.000000 10.000000" Properties=species:S:1:pos:R:3 dft_energy=-6224.01681471
C 4.37311 4.06457 5.16496 
C 5.12855 5.39370 4.92765 
O 5.03824 6.38654 5.84805 
O 5.83812 5.58537 4.01549 
H 4.91464 3.37873 5.86984 
H 4.25645 3.58270 4.16537 
H 3.30316 4.18266 5.58766 
H 5.56265 6.97329 5.29379 
8
Lattice="10.000000 0.000000 0.000000 0.000000 10.000000 0.000000 0.000000 0.000000 10.000000" Properties=species:S:1:pos:R:3 dft_energy=-6224.01656102
C 4.36876 4.06420 5.16166 
C 5.13281 5.39676 4.92989 
O 5.03633 6.38604 5.84793 
O 5.84033 5.58334 4.01683 
H 4.90734 3.39260 5.87695 
H 4.26432 3.56283 4.16457 
H 3.30783 4.19402 5.58319 
H 5.55640 6.97169 5.28410 
8
Lattice="10.000000 0.000000 0.000000 0.000000 10.000000 0.000000 0.000000 0.000000 10.000000" Properties=species:S:1:pos:R:3 dft_energy=-6224.02793982
C 4.36420 4.06398 5.15844 
C 5.13647 5.39943 4.93260 
O 5.03440 6.38549 5.84795 
O 5.84292 5.58137 4.01768 
H 4.89976 3.40756 5.88211 
H 4.27321 3.54441 4.16589 
H 3.31608 4.20575 5.57733 
H 5.55054 6.97317 5.27504 
8
Lattice="10.000000 0.000000 0.000000 0.000000 10.000000 0.000000 0.000000 0.000000 10.000000" Properties=species:S:1:pos:R:3 dft_energy=-6224.04718848
C 4.35930 4.06374 5.15524 
C 5.13957 5.40167 4.93566 
O 5.03235 6.38482 5.84809 
O 5.84609 5.57954 4.01802 
H 4.89229 3.42330 5.88595 
H 4.28305 3.52706 4.16989 
H 3.32790 4.21735 5.56927 
H 5.54524 6.97717 5.26707 
8
Lattice="10.000000 0.000000 0.000000 0.000000 10.000000 0.000000 0.000000 0.000000 10.000000" Properties=species:S:1:pos:R:3 dft_energy=-6224.06688717
C 4.35410 4.06356 5.15203 
C 5.14180 5.40361 4.93924 
O 5.02995 6.38413 5.84825 
O 5.84949 5.57793 4.01781 
H 4.88476 3.43982 5.88855 
H 4.29350 3.51181 4.17684 
H 3.34114 4.22914 5.56009 
H 5.54018 6.98341 5.26071 
8
Lattice="10.000000 0.000000 0.000000 0.000000 10.000000 0.000000 0.000000 0.000000 10.000000" Properties=species:S:1:pos:R:3 dft_energy=-6224.08056090
C 4.34927 4.06320 5.14893 
C 5.14386 5.40495 4.94354 
O 5.02768 6.38325 5.84854 
O 5.85343 5.57630 4.01725 
H 4.87722 3.45690 5.88998 
H 4.30443 3.49822 4.18664 
H 3.35541 4.24090 5.54983 
H 5.53566 6.99137 5.25702 
8
Lattice="10.000000 0.000000 0.000000 0.000000 10.000000 0.000000 0.000000 0.000000 10.000000" Properties=species:S:1:pos:R:3 dft_energy=-6224.08321688
C 4.34450 4.06318 5.14542 
C 5.14511 5.40584 4.94799 
O 5.02514 6.38242 5.84877 
O 5.85753 5.57477 4.01618 
H 4.86994 3.47384 5.89098 
H 4.31474 3.48581 4.19848 
H 3.36850 4.25274 5.53924 
H 5.53137 7.00076 5.25598 
8
Lattice="10.000000 0.000000 0.000000 0.000000 10.000000 0.000000 0.000000 0.000000 10.000000" Properties=species:S:1:pos:R:3 dft_energy=-6224.07683078
C 4.33996 4.06339 5.14156 
C 5.14593 5.40623 4.95266 
O 5.02264 6.38177 5.84903 
O 5.86209 5.57340 4.01473 
H 4.86269 3.48978 5.89240 
H 4.32489 3.47453 4.21221 
H 3.37891 4.26476 5.52913 
H 5.52670 7.01033 5.25785 
8
Lattice="10.000000 0.000000 0.000000 0.000000 10.000000 0.000000 0.000000 0.000000 10.000000" Properties=species:S:1:pos:R:3 dft_energy=-6224.06548317
C 4.33584 4.06374 5.13763 
C 5.14638 5.40612 4.95739 
O 5.02026 6.38129 5.84922 
O 5.86685 5.57203 4.01286 
H 4.85567 3.50469 5.89553 
H 4.33514 3.46462 4.22640 
H 3.38581 4.27698 5.52002 
H 5.52169 7.02071 5.26212 
8
Lattice="10.000000 0.000000 0.000000 0.000000 10.000000 0.000000 0.000000 0.000000 10.000000" Properties=species:S:1:pos:R:3 dft_energy=-6224.05625931
C 4.33237 4.06430 5.13392 
C 5.14650 5.40540 4.96237 
O 5.01800 6.38088 5.84940 
O 5.87178 5.57065 4.01081 
H 4.85003 3.51784 5.90058 
H 4.34474 3.45615 4.24096 
H 3.38868 4.28957 5.51185 
H 5.51627 7.03146 5.26908 
8
Lattice="10.000000 0.000000 0.000000 0.000000 10.000000 0.000000 0.000000 0.000000 10.000000" Properties=species:S:1:pos:R:3 dft_energy=-6224.05329451
C 4.32938 4.06521 5.13029 
C 5.14645 5.40412 4.96727 
O 5.01582 6.38076 5.84948 
O 5.87680 5.56930 4.00862 
H 4.84520 3.52902 5.90687 
H 4.35417 3.44834 4.25522 
H 3.38686 4.30238 5.50452 
H 5.51010 7.04183 5.27909 
8
Lattice="10.000000 0.000000 0.000000 0.000000 10.000000 0.000000 0.000000 0.000000 10.000000" Properties=species:S:1:pos:R:3 dft_energy=-6224.05760267
C 4.32680 4.06658 5.12653 
C 5.14635 5.40214 4.97152 
O 5.01359 6.38078 5.84934 
O 5.88169 5.56783 4.00618 
H 4.84133 3.53904 5.91486 
H 4.36312 3.44025 4.26818 
H 3.38069 4.31439 5.49789 
H 5.50323 7.05192 5.29173 
8
Lattice="10.000000 0.000000 0.000000 0.000000 10.000000 0.000000 0.000000 0.000000 10.000000" Properties=species:S:1:pos:R:3 dft_energy=-6224.06747346
C 4.32478 4.06846 5.12322 
C 5.14609 5.39984 4.97525 
O 5.01131 6.38101 5.84933 
O 5.88629 5.56648 4.00394 
H 4.83852 3.54726 5.92477 
H 4.37127 3.43219 4.27954 
H 3.37058 4.32595 5.49250 
H 5.49548 7.06167 5.30652 
8
Lattice="10.000000 0.000000 0.000000 0.000000 10.000000 0.000000 0.000000 0.000000 10.000000" Properties=species:S:1:pos:R:3 dft_energy=-6224.07873658
C 4.32344 4.07078 5.12037 
C 5.14591 5.39721 4.97849 
O 5.00910 6.38142 5.84960 
O 5.89086 5.56522 4.00184 
H 4.83593 3.55439 5.93620 
H 4.37921 3.42334 4.28846 
H 3.35697 4.33790 5.48779 
H 5.48779 7.07101 5.32309 
8
Lattice="10.000000 0.000000 0.000000 0.000000 10.000000 0.000000 0.000000 0.000000 10.000000" Properties=species:S:1:pos:R:3 dft_energy=-6224.08751689
C 4.32256 4.07327 5.11780 
C 5.14578 5.39396 4.98079 
O 5.00671 6.38164 5.84996 
O 5.89523 5.56402 3.99979 
H 4.83296 3.56044 5.94830 
H 4.38679 3.41386 4.29477 
H 3.33998 4.34945 5.48270 
H 5.47983 7.07973 5.34143 
8
Lattice="10.000000 0.000000 0.000000 0.000000 10.000000 0.000000 0.000000 0.000000 10.000000" Properties=species:S:1:pos:R:3 dft_energy=-6224.08907060
C 4.32206 4.07642 5.11572 
C 5.14570 5.39074 4.98221 
O 5.00427 6.38191 5.85024 
O 5.89948 5.56301 3.99797 
H 4.82951 3.56592 5.96023 
H 4.39386 3.40459 4.29871 
H 3.32106 4.36057 5.47688 
H 5.47266 7.08851 5.36061 
8
Lattice="10.000000 0.000000 0.000000 0.000000 10.000000 0.000000 0.000000 0.000000 10.000000" Properties=species:S:1:pos:R:3 dft_energy=-6224.08543677
C 4.32185 4.08012 5.11424 
C 5.14590 5.38715 4.98276 
O 5.00170 6.38200 5.85053 
O 5.90358 5.56179 3.99654 
H 4.82489 3.57079 5.97277 
H 4.39995 3.39569 4.30004 
H 3.30199 4.37082 5.46969 
H 5.46635 7.09734 5.38069 
8
Lattice="10.000000 0.000000 0.000000 0.000000 10.000000 0.000000 0.000000 0.000000 10.000000" Properties=species:S:1:pos:R:3 dft_energy=-6224.07915762
C 4.32160 4.08441 5.11356 
C 5.14641 5.38339 4.98253 
O 4.99906 6.38213 5.85084 
O 5.90735 5.56043 3.99556 
H 4.81930 3.57576 5.98466 
H 4.40527 3.38747 4.29876 
H 3.28355 4.37909 5.46112 
H 5.45964 7.10616 5.40180 
8
Lattice="10.000000 0.000000 0.000000 0.000000 10.000000 0.000000 0.000000 0.000000 10.000000" Properties=species:S:1:pos:R:3 dft_energy=-6224.07473850
C 4.32144 4.08909 5.11347 
C 5.14753 5.37947 4.98134 
O 4.99644 6.38231 5.85141 
O 5.91103 5.55901 3.99486 
H 4.81203 3.58066 5.99631 
H 4.40961 3.38052 4.29618 
H 3.26764 4.38430 5.45077 
H 5.45316 7.11546 5.42333 
8
Lattice="10.000000 0.000000 0.000000 0.000000 10.000000 0.000000 0.000000 0.000000 10.000000" Properties=species:S:1:pos:R:3 dft_energy=-6224.07608069
C 4.32104 4.09404 5.11384 
C 5.14896 5.37560 4.97910 
O 4.99362 6.38244 5.85204 
O 5.91426 5.55749 3.99452 
H 4.80341 3.58632 6.00694 
H 4.41343 3.37489 4.29305 
H 3.25465 4.38714 5.43847 
H 5.44734 7.12467 5.44552 
8
Lattice="10.000000 0.000000 0.000000 0.000000 10.000000 0.000000 0.000000 0.000000 10.000000" Properties=species:S:1:pos:R:3 dft_energy=-6224.08832250
C 4.32081 4.09931 5.11472 
C 5.15078 5.37174 4.97591 
O 4.99072 6.38234 5.85291 
O 5.91742 5.55572 3.99464 
H 4.79262 3.59256 6.01573 
H 4.41703 3.37057 4.28971 
H 3.24544 4.38795 5.42437 
H 5.44253 7.13409 5.46718 
8