8
Lattice="10.000000 0.000000 0.000000 0.000000 10.000000 0.000000 0.000000 0.000000 10.000000" Properties=species:S:1:pos:R:3 dft_energy=-6224.45447833
C 4.39324 4.18183 4.58383 
C 5.07724 5.47049 4.93764 
O 5.91306 5.31671 5.97492 
O 4.92528 6.52484 4.38464 
H 3.64778 4.35823 3.81545 
H 3.93142 3.76022 5.47271 
H 5.13664 3.47516 4.22231 
H 6.35222 6.15512 6.18455 
8
Lattice="10.000000 0.000000 0.000000 0.000000 10.000000 0.000000 0.000000 0.000000 10.000000" Properties=species:S:1:pos:R:3 dft_energy=-6224.44826910
C 4.38967 4.18757 4.58368 
C 5.08001 5.47201 4.94085 
O 5.91681 5.31746 5.98108 
O 4.92415 6.52406 4.38622 
H 3.63547 4.35931 3.82505 
H 3.93453 3.76325 5.46980 
H 5.13800 3.48405 4.22422 
H 6.34682 6.16431 6.20245 
8
Lattice="10.000000 0.000000 0.000000 0.000000 10.000000 0.000000 0.000000 0.000000 10.000000" Properties=species:S:1:pos:R:3 dft_energy=-6224.44012974
C 4.38576 4.19149 4.58035 
C 5.08234 5.47188 4.94098 
O 5.92031 5.31638 5.98413 
O 4.92255 6.52184 4.38453 
H 3.62193 4.35872 3.83039 
H 3.93684 3.76370 5.46475 
H 5.13993 3.48949 4.22237 
H 6.34035 6.17190 6.21608 
8
Lattice="10.000000 0.000000 0.000000 0.000000 10.000000 0.000000 0.000000 0.000000 10.000000" Properties=species:S:1:pos:R:3 dft_energy=-6224.43039561
C 4.38181 4.19531 4.57729 
C 5.08483 5.47167 4.94114 
O 5.92401 5.31504 5.98723 
O 4.92099 6.51976 4.38276 
H 3.60830 4.35858 3.83505 
H 3.93816 3.76276 5.46071 
H 5.14277 3.49407 4.21994 
H 6.33312 6.17887 6.22869 
8
Lattice="10.000000 0.000000 0.000000 0.000000 10.000000 0.000000 0.000000 0.000000 10.000000" Properties=species:S:1:pos:R:3 dft_energy=-6224.41963587
C 4.37782 4.19908 4.57455 
C 5.08729 5.47132 4.94141 
O 5.92759 5.31394 5.99051 
O 4.91948 6.51794 4.38102 
H 3.59441 4.35900 3.83848 
H 3.93873 3.76094 5.45809 
H 5.14489 3.49851 4.21710 
H 6.32528 6.18507 6.24038 
8
Lattice="10.000000 0.000000 0.000000 0.000000 10.000000 0.000000 0.000000 0.000000 10.000000" Properties=species:S:1:pos:R:3 dft_energy=-6224.40933684
C 4.37384 4.20277 4.57169 
C 5.08976 5.47098 4.94167 
O 5.93138 5.31280 5.99389 
O 4.91803 6.51620 4.37915 
H 3.58058 4.36001 3.84018 
H 3.93860 3.75761 5.45711 
H 5.14611 3.50227 4.21367 
H 6.31692 6.19055 6.25060 
8
Lattice="10.000000 0.000000 0.000000 0.000000 10.000000 0.000000 0.000000 0.000000 10.000000" Properties=species:S:1:pos:R:3 dft_energy=-6224.40011647
C 4.37017 4.20638 4.56891 
C 5.09232 5.47071 4.94187 
O 5.93543 5.31166 5.99737 
O 4.91666 6.51470 4.37712 
H 3.56785 4.36179 3.84091 
H 3.93800 3.75324 5.45750 
H 5.14608 3.50533 4.20928 
H 6.30741 6.19527 6.25924 
8
Lattice="10.000000 0.000000 0.000000 0.000000 10.000000 0.000000 0.000000 0.000000 10.000000" Properties=species:S:1:pos:R:3 dft_energy=-6224.39186651
C 4.36657 4.20984 4.56626 
C 5.09476 5.47048 4.94227 
O 5.93948 5.31051 6.00108 
O 4.91515 6.51341 4.37518 
H 3.55632 4.36391 3.84070 
H 3.93727 3.74768 5.45929 
H 5.14469 3.50768 4.20431 
H 6.29643 6.19864 6.26653 
8
Lattice="10.000000 0.000000 0.000000 0.000000 10.000000 0.000000 0.000000 0.000000 10.000000" Properties=species:S:1:pos:R:3 dft_energy=-6224.38260406
C 4.36309 4.21311 4.56358 
C 5.09689 5.47009 4.94283 
O 5.94343 5.30932 6.00481 
O 4.91353 6.51226 4.37307 
H 3.54578 4.36620 3.84046 
H 3.93587 3.74133 5.46147 
H 5.14195 3.51017 4.19883 
H 6.28484 6.20098 6.27280 
8
Lattice="10.000000 0.000000 0.000000 0.000000 10.000000 0.000000 0.000000 0.000000 10.000000" Properties=species:S:1:pos:R:3 dft_energy=-6224.37289645
C 4.35999 4.21636 4.56088 
C 5.09909 5.46981 4.94343 
O 5.94765 5.30816 6.00839 
O 4.91201 6.51128 4.37084 
H 3.53720 4.36863 3.84047 
H 3.93417 3.73507 5.46421 
H 5.13739 3.51209 4.19264 
H 6.27281 6.20181 6.27809 
8
Lattice="10.000000 0.000000 0.000000 0.000000 10.000000 0.000000 0.000000 0.000000 10.000000" Properties=species:S:1:pos:R:3 dft_energy=-6224.36231446
C 4.35688 4.21928 4.55826 
C 5.10100 5.46958 4.94416 
O 5.95184 5.30703 6.01187 
O 4.91042 6.51041 4.36854 
H 3.52974 4.37158 3.84080 
H 3.93229 3.72911 5.46683 
H 5.13130 3.51311 4.18570 
H 6.25975 6.20229 6.28164 
8
Lattice="10.000000 0.000000 0.000000 0.000000 10.000000 0.000000 0.000000 0.000000 10.000000" Properties=species:S:1:pos:R:3 dft_energy=-6224.35112792
C 4.35410 4.22187 4.55581 
C 5.10296 5.46958 4.94490 
O 5.95620 5.30613 6.01540 
O 4.90917 6.50982 4.36625 
H 3.52398 4.37471 3.84169 
H 3.93111 3.72303 5.46889 
H 5.12396 3.51369 4.17783 
H 6.24597 6.20197 6.28416 
8
Lattice="10.000000 0.000000 0.000000 0.000000 10.000000 0.000000 0.000000 0.000000 10.000000" Properties=species:S:1:pos:R:3 dft_energy=-6224.33949952
C 4.35137 4.22398 4.55341 
C 5.10464 5.46915 4.94586 
O 5.96025 5.30516 6.01900 
O 4.90781 6.50920 4.36382 
H 3.51950 4.37748 3.84245 
H 3.93042 3.71812 5.46930 
H 5.11487 3.51385 4.16916 
H 6.23149 6.20111 6.28598 
8
Lattice="10.000000 0.000000 0.000000 0.000000 10.000000 0.000000 0.000000 0.000000 10.000000" Properties=species:S:1:pos:R:3 dft_energy=-6224.32767414
C 4.34872 4.22591 4.55114 
C 5.10609 5.46892 4.94691 
O 5.96421 5.30437 6.02280 
O 4.90662 6.50879 4.36135 
H 3.51674 4.38093 3.84385 
H 3.93011 3.71474 5.46865 
H 5.10385 3.51413 4.16022 
H 6.21689 6.20017 6.28725 
8
Lattice="10.000000 0.000000 0.000000 0.000000 10.000000 0.000000 0.000000 0.000000 10.000000" Properties=species:S:1:pos:R:3 dft_energy=-6224.31615100
C 4.34589 4.22734 4.54918 
C 5.10730 5.46845 4.94780 
O 5.96804 5.30352 6.02646 
O 4.90567 6.50843 4.35891 
H 3.51562 4.38480 3.84527 
H 3.93001 3.71170 5.46625 
H 5.09152 3.51457 4.15104 
H 6.20270 6.19951 6.28889 
8
Lattice="10.000000 0.000000 0.000000 0.000000 10.000000 0.000000 0.000000 0.000000 10.000000" Properties=species:S:1:pos:R:3 dft_energy=-6224.30639971
C 4.34302 4.22882 4.54752 
C 5.10834 5.46820 4.94860 
O 5.97173 5.30281 6.02972 
O 4.90490 6.50831 4.35633 
H 3.51599 4.38934 3.84694 
H 3.93034 3.70959 5.46180 
H 5.07848 3.51483 4.14111 
H 6.18906 6.20056 6.29059 
8
Lattice="10.000000 0.000000 0.000000 0.000000 10.000000 0.000000 0.000000 0.000000 10.000000" Properties=species:S:1:pos:R:3 dft_energy=-6224.29815850
C 4.34012 4.22993 4.54619 
C 5.10949 5.46776 4.94975 
O 5.97520 5.30199 6.03284 
O 4.90441 6.50800 4.35386 
H 3.51749 4.39399 3.84844 
H 3.93189 3.70859 5.45621 
H 5.06515 3.51510 4.13043 
H 6.17603 6.20307 6.29268 
8
Lattice="10.000000 0.000000 0.000000 0.000000 10.000000 0.000000 0.000000 0.000000 10.000000" Properties=species:S:1:pos:R:3 dft_energy=-6224.29146633
C 4.33722 4.23094 4.54528 
C 5.11056 5.46736 4.95108 
O 5.97843 5.30119 6.03580 
O 4.90406 6.50771 4.35153 
H 3.51976 4.40000 3.84980 
H 3.93398 3.70864 5.44945 
H 5.05203 3.51467 4.11953 
H 6.16332 6.20771 6.29547 
8
Lattice="10.000000 0.000000 0.000000 0.000000 10.000000 0.000000 0.000000 0.000000 10.000000" Properties=species:S:1:pos:R:3 dft_energy=-6224.28420564
C 4.33450 4.23182 4.54466 
C 5.11143 5.46702 4.95238 
O 5.98140 5.30041 6.03859 
O 4.90385 6.50758 4.34928 
H 3.52244 4.40604 3.85080 
H 3.93615 3.70935 5.44170 
H 5.03907 3.51365 4.10821 
H 6.15158 6.21393 6.29881 
8
Lattice="10.000000 0.000000 0.000000 0.000000 10.000000 0.000000 0.000000 0.000000 10.000000" Properties=species:S:1:pos:R:3 dft_energy=-6224.27522187
C 4.33200 4.23239 4.54409 
C 5.11214 5.46662 4.95362 
O 5.98421 5.29960 6.04091 
O 4.90391 6.50738 4.34718 
H 3.52605 4.41304 3.85108 
H 3.93863 3.71093 5.43284 
H 5.02599 3.51210 4.09658 
H 6.14063 6.22126 6.30238 
8
Lattice="10.000000 0.000000 0.000000 0.000000 10.000000 0.000000 0.000000 0.000000 10.000000" Properties=species:S:1:pos:R:3 dft_energy=-6224.26258592
C 4.32954 4.23264 4.54391 
C 5.11265 5.46621 4.95497 
O 5.98658 5.29893 6.04313 
O 4.90406 6.50702 4.34524 
H 3.52906 4.42103 3.85141 
H 3.94026 3.71240 5.42383 
H 5.01299 3.51093 4.08415 
H 6.12984 6.22888 6.30626 
8
Lattice="10.000000 0.000000 0.000000 0.000000 10.000000 0.000000 0.000000 0.000000 10.000000" Properties=species:S:1:pos:R:3 dft_energy=-6224.24670974
C 4.32744 4.23274 4.54386 
C 5.11320 5.46583 4.95643 
O 5.98869 5.29846 6.04514 
O 4.90451 6.50659 4.34341 
H 3.53218 4.43025 3.85103 
H 3.94171 3.71419 5.41534 
H 5.00065 3.50948 4.07155 
H 6.11990 6.23700 6.31000 
8
Lattice="10.000000 0.000000 0.000000 0.000000 10.000000 0.000000 0.000000 0.000000 10.000000" Properties=species:S:1:pos:R:3 dft_energy=-6224.22935109
C 4.32556 4.23276 4.54372 
C 5.11356 5.46566 4.95793 
O 5.99031 5.29812 6.04682 
O 4.90499 6.50630 4.34165 
H 3.53426 4.44079 3.85008 
H 3.94211 3.71574 5.40753 
H 4.98852 3.50766 4.05800 
H 6.11079 6.24439 6.31374 
8
Lattice="10.000000 0.000000 0.000000 0.000000 10.000000 0.000000 0.000000 0.000000 10.000000" Properties=species:S:1:pos:R:3 dft_energy=-6224.21383413
C 4.32412 4.23261 4.54378 
C 5.11394 5.46535 4.95952 
O 5.99185 5.29765 6.04827 
O 4.90567 6.50584 4.34018 
H 3.53533 4.45197 3.84852 
H 3.94095 3.71645 5.40154 
H 4.97717 3.50568 4.04420 
H 6.10254 6.25008 6.31677 
8
Lattice="10.000000 0.000000 0.000000 0.000000 10.000000 0.000000 0.000000 0.000000 10.000000" Properties=species:S:1:pos:R:3 dft_energy=-6224.20423272
C 4.32284 4.23244 4.54382 
C 5.11411 5.46512 4.96091 
O 5.99306 5.29751 6.04924 
O 4.90638 6.50531 4.33897 
H 3.53530 4.46480 3.84606 
H 3.93810 3.71604 5.39751 
H 4.96664 3.50369 4.03050 
H 6.09492 6.25387 6.31946 
8
Lattice="10.000000 0.000000 0.000000 0.000000 10.000000 0.000000 0.000000 0.000000 10.000000" Properties=species:S:1:pos:R:3 dft_energy=-6224.20136532
C 4.32197 4.23222 4.54390 
C 5.11433 5.46492 4.96208 
O 5.99423 5.29754 6.05010 
O 4.90729 6.50480 4.33806 
H 3.53464 4.47957 3.84337 
H 3.93359 3.71401 5.39630 
H 4.95704 3.50168 4.01671 
H 6.08802 6.25599 6.32189 
8
Lattice="10.000000 0.000000 0.000000 0.000000 10.000000 0.000000 0.000000 0.000000 10.000000" Properties=species:S:1:pos:R:3 dft_energy=-6224.20357339
C 4.32150 4.23196 4.54389 
C 5.11433 5.46482 4.96303 
O 5.99522 5.29766 6.05074 
O 4.90835 6.50429 4.33737 
H 3.53292 4.49605 3.84067 
H 3.92768 3.71138 5.39733 
H 4.94861 3.49978 4.00318 
H 6.08132 6.25617 6.32420 
8
Lattice="10.000000 0.000000 0.000000 0.000000 10.000000 0.000000 0.000000 0.000000 10.000000" Properties=species:S:1:pos:R:3 dft_energy=-6224.20885521
C 4.32124 4.23162 4.54382 
C 5.11411 5.46471 4.96388 
O 5.99590 5.29790 6.05111 
O 4.90946 6.50354 4.33683 
H 3.53123 4.51366 3.83898 
H 3.92011 3.70752 5.40010 
H 4.94024 3.49823 3.99013 
H 6.07481 6.25423 6.32600 
8
Lattice="10.000000 0.000000 0.000000 0.000000 10.000000 0.000000 0.000000 0.000000 10.000000" Properties=species:S:1:pos:R:3 dft_energy=-6224.21521257
C 4.32129 4.23133 4.54355 
C 5.11385 5.46476 4.96475 
O 5.99652 5.29838 6.05120 
O 4.91093 6.50263 4.33660 
H 3.52994 4.53176 3.83866 
H 3.91181 3.70270 5.40435 
H 4.93249 3.49727 3.97747 
H 6.06915 6.24993 6.32748 
8
Lattice="10.000000 0.000000 0.000000 0.000000 10.000000 0.000000 0.000000 0.000000 10.000000" Properties=species:S:1:pos:R:3 dft_energy=-6224.21947472
C 4.32120 4.23100 4.54314 
C 5.11339 5.46503 4.96544 
O 5.99677 5.29924 6.05097 
O 4.91255 6.50170 4.33663 
H 3.52851 4.55082 3.83963 
H 3.90293 3.69733 5.40906 
H 4.92474 3.49691 3.96524 
H 6.06474 6.24468 6.32876 
8
Lattice="10.000000 0.000000 0.000000 0.000000 10.000000 0.000000 0.000000 0.000000 10.000000" Properties=species:S:1:pos:R:3 dft_energy=-6224.22088737
C 4.32129 4.23036 4.54272 
C 5.11281 5.46528 4.96587 
O 5.99677 5.30017 6.05048 
O 4.91429 6.50040 4.33685 
H 3.52753 4.56930 3.84227 
H 3.89333 3.69218 5.41373 
H 4.91781 3.49737 3.95410 
H 6.06116 6.23827 6.32996 
8
Lattice="10.000000 0.000000 0.000000 0.000000 10.000000 0.000000 0.000000 0.000000 10.000000" Properties=species:S:1:pos:R:3 dft_energy=-6224.21970133
C 4.32164 4.22951 4.54243 
C 5.11213 5.46565 4.96640 
O 5.99629 5.30138 6.04985 
O 4.91609 6.49890 4.33741 
H 3.52743 4.58747 3.84692 
H 3.88408 3.68747 5.41845 
H 4.91132 3.49878 3.94412 
H 6.05846 6.23145 6.33097 
8
Lattice="10.000000 0.000000 0.000000 0.000000 10.000000 0.000000 0.000000 0.000000 10.000000" Properties=species:S:1:pos:R:3 dft_energy=-6224.21762202
C 4.32210 4.22850 4.54233 
C 5.11121 5.46608 4.96682 
O 5.99559 5.30286 6.04888 
O 4.91815 6.49731 4.33823 
H 3.52825 4.60574 3.85366 
H 3.87571 3.68304 5.42152 
H 4.90419 3.50095 3.93543 
H 6.05686 6.22487 6.33250 
8
Lattice="10.000000 0.000000 0.000000 0.000000 10.000000 0.000000 0.000000 0.000000 10.000000" Properties=species:S:1:pos:R:3 dft_energy=-6224.21603720
C 4.32253 4.22739 4.54242 
C 5.11019 5.46630 4.96714 
O 5.99471 5.30435 6.04769 
O 4.92039 6.49547 4.33919 
H 3.52998 4.62378 3.86163 
H 3.86787 3.67886 5.42275 
H 4.89699 3.50379 3.92823 
H 6.05707 6.21924 6.33455 
8
Lattice="10.000000 0.000000 0.000000 0.000000 10.000000 0.000000 0.000000 0.000000 10.000000" Properties=species:S:1:pos:R:3 dft_energy=-6224.21828722
C 4.32288 4.22629 4.54267 
C 5.10883 5.46652 4.96750 
O 5.99356 5.30595 6.04611 
O 4.92302 6.49334 4.34028 
H 3.53221 4.64116 3.87107 
H 3.86145 3.67604 5.42182 
H 4.89010 3.50710 3.92232 
H 6.05853 6.21517 6.33656 
8
Lattice="10.000000 0.000000 0.000000 0.000000 10.000000 0.000000 0.000000 0.000000 10.000000" Properties=species:S:1:pos:R:3 dft_energy=-6224.22593908
C 4.32292 4.22523 4.54300 
C 5.10729 5.46683 4.96762 
O 5.99210 5.30764 6.04418 
O 4.92588 6.49120 4.34160 
H 3.53479 4.65760 3.88200 
H 3.85656 3.67502 5.41887 
H 4.88330 3.51126 3.91686 
H 6.06118 6.21297 6.33968 
8
Lattice="10.000000 0.000000 0.000000 0.000000 10.000000 0.000000 0.000000 0.000000 10.000000" Properties=species:S:1:pos:R:3 dft_energy=-6224.23823236
C 4.32282 4.22409 4.54342 
C 5.10571 5.46712 4.96747 
O 5.99048 5.30937 6.04190 
O 4.92888 6.48904 4.34301 
H 3.53858 4.67228 3.89404 
H 3.85289 3.67544 5.41388 
H 4.87625 3.51598 3.91157 
H 6.06544 6.21267 6.34418 
8
Lattice="10.000000 0.000000 0.000000 0.000000 10.000000 0.000000 0.000000 0.000000 10.000000" Properties=species:S:1:pos:R:3 dft_energy=-6224.25175786
C 4.32264 4.22272 4.54393 
C 5.10426 5.46724 4.96739 
O 5.98850 5.31099 6.03955 
O 4.93190 6.48676 4.34453 
H 3.54340 4.68560 3.90715 
H 3.85004 3.67634 5.40706 
H 4.87024 3.52139 3.90687 
H 6.07084 6.21460 6.34919 
8
Lattice="10.000000 0.000000 0.000000 0.000000 10.000000 0.000000 0.000000 0.000000 10.000000" Properties=species:S:1:pos:R:3 dft_energy=-6224.26304039
C 4.32255 4.22128 4.54455 
C 5.10292 5.46724 4.96740 
O 5.98634 5.31266 6.03698 
O 4.93501 6.48473 4.34602 
H 3.54824 4.69750 3.92119 
H 3.84787 3.67897 5.39917 
H 4.86523 3.52705 3.90239 
H 6.07736 6.21888 6.35511 
8
Lattice="10.000000 0.000000 0.000000 0.000000 10.000000 0.000000 0.000000 0.000000 10.000000" Properties=species:S:1:pos:R:3 dft_energy=-6224.26763812
C 4.32240 4.21989 4.54551 
C 5.10176 5.46691 4.96748 
O 5.98423 5.31459 6.03411 
O 4.93826 6.48292 4.34760 
H 3.55315 4.70779 3.93505 
H 3.84670 3.68262 5.39025 
H 4.86005 3.53304 3.89808 
H 6.08483 6.22517 6.36128 
8
Lattice="10.000000 0.000000 0.000000 0.000000 10.000000 0.000000 0.000000 0.000000 10.000000" Properties=species:S:1:pos:R:3 dft_energy=-6224.26224449
C 4.32213 4.21839 4.54670 
C 5.10075 5.46626 4.96738 
O 5.98193 5.31656 6.03114 
O 4.94148 6.48122 4.34931 
H 3.55742 4.71632 3.94885 
H 3.84656 3.68699 5.38107 
H 4.85531 3.53917 3.89371 
H 6.09271 6.23210 6.36727 
8
Lattice="10.000000 0.000000 0.000000 0.000000 10.000000 0.000000 0.000000 0.000000 10.000000" Properties=species:S:1:pos:R:3 dft_energy=-6224.24803766
C 4.32177 4.21716 4.54786 
C 5.09958 5.46536 4.96713 
O 5.97951 5.31853 6.02832 
O 4.94468 6.47970 4.35101 
H 3.56001 4.72312 3.96226 
H 3.84595 3.69116 5.37217 
H 4.85122 3.54459 3.88963 
H 6.10171 6.23873 6.37201 
8
Lattice="10.000000 0.000000 0.000000 0.000000 10.000000 0.000000 0.000000 0.000000 10.000000" Properties=species:S:1:pos:R:3 dft_energy=-6224.22949196
C 4.32147 4.21606 4.54896 
C 5.09850 5.46422 4.96706 
O 5.97701 5.32037 6.02569 
O 4.94802 6.47835 4.35267 
H 3.56094 4.72846 3.97499 
H 3.84533 3.69479 5.36401 
H 4.84784 3.54886 3.88537 
H 6.11083 6.24311 6.37600 
8
Lattice="10.000000 0.000000 0.000000 0.000000 10.000000 0.000000 0.000000 0.000000 10.000000" Properties=species:S:1:pos:R:3 dft_energy=-6224.21321808
C 4.32117 4.21539 4.55001 
C 5.09743 5.46301 4.96734 
O 5.97450 5.32233 6.02317 
O 4.95125 6.47742 4.35402 
H 3.55986 4.73340 3.98608 
H 3.84395 3.69763 5.35730 
H 4.84551 3.55217 3.88127 
H 6.11986 6.24514 6.37848 
8
Lattice="10.000000 0.000000 0.000000 0.000000 10.000000 0.000000 0.000000 0.000000 10.000000" Properties=species:S:1:pos:R:3 dft_energy=-6224.20310818
C 4.32093 4.21505 4.55095 
C 5.09631 5.46153 4.96788 
O 5.97194 5.32421 6.02077 
O 4.95449 6.47656 4.35536 
H 3.55688 4.73763 3.99575 
H 3.84229 3.69908 5.35210 
H 4.84375 3.55493 3.87681 
H 6.12827 6.24455 6.37907 
8
Lattice="10.000000 0.000000 0.000000 0.000000 10.000000 0.000000 0.000000 0.000000 10.000000" Properties=species:S:1:pos:R:3 dft_energy=-6224.20214902
C 4.32087 4.21497 4.55180 
C 5.09539 5.45982 4.96852 
O 5.96947 5.32617 6.01847 
O 4.95789 6.47598 4.35662 
H 3.55206 4.74057 4.00353 
H 3.84035 3.69938 5.34891 
H 4.84305 3.55673 3.87213 
H 6.13650 6.24161 6.37773 
8
Lattice="10.000000 0.000000 0.000000 0.000000 10.000000 0.000000 0.000000 0.000000 10.000000" Properties=species:S:1:pos:R:3 dft_energy=-6224.20963974
C 4.32090 4.21486 4.55237 
C 5.09432 5.45782 4.96928 
O 5.96680 5.32804 6.01646 
O 4.96133 6.47562 4.35782 
H 3.54485 4.74249 4.00983 
H 3.83777 3.69832 5.34843 
H 4.84344 3.55753 3.86791 
H 6.14366 6.23646 6.37537 
8
Lattice="10.000000 0.000000 0.000000 0.000000 10.000000 0.000000 0.000000 0.000000 10.000000" Properties=species:S:1:pos:R:3 dft_energy=-6224.22313819
C 4.32110 4.21519 4.55281 
C 5.09352 5.45586 4.97010 
O 5.96419 5.33008 6.01451 
O 4.96499 6.47567 4.35898 
H 3.53511 4.74309 4.01497 
H 3.83460 3.69600 5.34982 
H 4.84469 3.55812 3.86294 
H 6.15065 6.22935 6.37103 
8
Lattice="10.000000 0.000000 0.000000 0.000000 10.000000 0.000000 0.000000 0.000000 10.000000" Properties=species:S:1:pos:R:3 dft_energy=-6224.23724151
C 4.32127 4.21546 4.55311 
C 5.09299 5.45369 4.97112 
O 5.96175 5.33196 6.01253 
O 4.96879 6.47580 4.36020 
H 3.52365 4.74209 4.01862 
H 3.83107 3.69107 5.35238 
H 4.84634 3.55853 3.85772 
H 6.15742 6.22080 6.36488 
8
Lattice="10.000000 0.000000 0.000000 0.000000 10.000000 0.000000 0.000000 0.000000 10.000000" Properties=species:S:1:pos:R:3 dft_energy=-6224.24722370
C 4.32130 4.21600 4.55345 
C 5.09238 5.45147 4.97225 
O 5.95918 5.33403 6.01071 
O 4.97237 6.47634 4.36128 
H 3.51145 4.74025 4.02134 
H 3.82789 3.68427 5.35636 
H 4.84816 3.55875 3.85301 
H 6.16326 6.21242 6.35701 
8
Lattice="10.000000 0.000000 0.000000 0.000000 10.000000 0.000000 0.000000 0.000000 10.000000" Properties=species:S:1:pos:R:3 dft_energy=-6224.25012915
C 4.32121 4.21665 4.55371 
C 5.09173 5.44903 4.97354 
O 5.95658 5.33593 6.00901 
O 4.97606 6.47692 4.36218 
H 3.49901 4.73717 4.02286 
H 3.82503 3.67596 5.36116 
H 4.85002 3.55914 3.84904 
H 6.16854 6.20430 6.34812 
8
Lattice="10.000000 0.000000 0.000000 0.000000 10.000000 0.000000 0.000000 0.000000 10.000000" Properties=species:S:1:pos:R:3 dft_energy=-6224.24647362
C 4.32100 4.21742 4.55407 
C 5.09132 5.44657 4.97482 
O 5.95411 5.33763 6.00740 
O 4.97978 6.47762 4.36302 
H 3.48703 4.73246 4.02354 
H 3.82360 3.66681 5.36738 
H 4.85218 3.55944 3.84547 
H 6.17358 6.19737 6.33848 
8
Lattice="10.000000 0.000000 0.000000 0.000000 10.000000 0.000000 0.000000 0.000000 10.000000" Properties=species:S:1:pos:R:3 dft_energy=-6224.23972426
C 4.32034 4.21826 4.55442 
C 5.09085 5.44427 4.97592 
O 5.95147 5.33902 6.00580 
O 4.98331 6.47844 4.36376 
H 3.47543 4.72598 4.02401 
H 3.82361 3.65731 5.37411 
H 4.85391 3.56065 3.84217 
H 6.17889 6.19268 6.32866 
8
Lattice="10.000000 0.000000 0.000000 0.000000 10.000000 0.000000 0.000000 0.000000 10.000000" Properties=species:S:1:pos:R:3 dft_energy=-6224.23459305
C 4.31937 4.21935 4.55489 
C 5.09042 5.44229 4.97705 
O 5.94866 5.34030 6.00448 
O 4.98692 6.47945 4.36474 
H 3.46406 4.71787 4.02411 
H 3.82586 3.64781 5.38070 
H 4.85489 3.56279 3.83954 
H 6.18477 6.19088 6.31918 
8
Lattice="10.000000 0.000000 0.000000 0.000000 10.000000 0.000000 0.000000 0.000000 10.000000" Properties=species:S:1:pos:R:3 dft_energy=-6224.23593467
C 4.31835 4.22021 4.55507 
C 5.08998 5.44039 4.97791 
O 5.94598 5.34087 6.00315 
O 4.99067 6.48027 4.36545 
H 3.45387 4.70831 4.02330 
H 3.83034 3.63826 5.38641 
H 4.85571 3.56554 3.83811 
H 6.19117 6.19224 6.30924 
8
Lattice="10.000000 0.000000 0.000000 0.000000 10.000000 0.000000 0.000000 0.000000 10.000000" Properties=species:S:1:pos:R:3 dft_energy=-6224.24539178
C 4.31698 4.22111 4.55518 
C 5.08926 5.43851 4.97881 
O 5.94323 5.34112 6.00182 
O 4.99427 6.48120 4.36611 
H 3.44537 4.69730 4.02250 
H 3.83657 3.62901 5.39047 
H 4.85600 3.56872 3.83811 
H 6.19842 6.19696 6.29926 
8
Lattice="10.000000 0.000000 0.000000 0.000000 10.000000 0.000000 0.000000 0.000000 10.000000" Properties=species:S:1:pos:R:3 dft_energy=-6224.26241792
C 4.31551 4.22193 4.55529 
C 5.08856 5.43689 4.97974 
O 5.94082 5.34120 6.00066 
O 4.99799 6.48210 4.36665 
H 3.43873 4.68447 4.02121 
H 3.84490 3.62056 5.39272 
H 4.85562 3.57237 3.83979 
H 6.20694 6.20472 6.28896 
8
Lattice="10.000000 0.000000 0.000000 0.000000 10.000000 0.000000 0.000000 0.000000 10.000000" Properties=species:S:1:pos:R:3 dft_energy=-6224.28437464
C 4.31349 4.22284 4.55558 
C 5.08762 5.43564 4.98061 
O 5.93825 5.34108 5.99956 
O 5.00143 6.48304 4.36719 
H 3.43313 4.66989 4.01991 
H 3.85556 3.61389 5.39323 
H 4.85492 3.57624 3.84288 
H 6.21595 6.21468 6.27753 
8
Lattice="10.000000 0.000000 0.000000 0.000000 10.000000 0.000000 0.000000 0.000000 10.000000" Properties=species:S:1:pos:R:3 dft_energy=-6224.30729523
C 4.31125 4.22373 4.55611 
C 5.08684 5.43467 4.98124 
O 5.93575 5.34075 5.99854 
O 5.00474 6.48414 4.36780 
H 3.42960 4.65376 4.01867 
H 3.86906 3.60866 5.39246 
H 4.85396 3.58109 3.84706 
H 6.22505 6.22577 6.26557 
8
Lattice="10.000000 0.000000 0.000000 0.000000 10.000000 0.000000 0.000000 0.000000 10.000000" Properties=species:S:1:pos:R:3 dft_energy=-6224.32680945
C 4.30868 4.22442 4.55677 
C 5.08606 5.43407 4.98173 
O 5.93333 5.34010 5.99778 
O 5.00803 6.48500 4.36856 
H 3.42687 4.63653 4.01797 
H 3.88455 3.60446 5.39069 
H 4.85245 3.58598 3.85213 
H 6.23403 6.23713 6.25230 
8
Lattice="10.000000 0.000000 0.000000 0.000000 10.000000 0.000000 0.000000 0.000000 10.000000" Properties=species:S:1:pos:R:3 dft_energy=-6224.34179773
C 4.30573 4.22483 4.55756 
C 5.08542 5.43384 4.98192 
O 5.93110 5.33928 5.99717 
O 5.01141 6.48573 4.36931 
H 3.42453 4.61876 4.01731 
H 3.90146 3.60123 5.38795 
H 4.85038 3.59125 3.85753 
H 6.24193 6.24723 6.23690 
8
Lattice="10.000000 0.000000 0.000000 0.000000 10.000000 0.000000 0.000000 0.000000 10.000000" Properties=species:S:1:pos:R:3 dft_energy=-6224.35273457
C 4.30261 4.22507 4.55844 
C 5.08480 5.43392 4.98184 
O 5.92903 5.33828 5.99681 
O 5.01477 6.48643 4.36999 
H 3.42292 4.60041 4.01693 
H 3.91925 3.59916 5.38418 
H 4.84891 3.59680 3.86326 
H 6.24843 6.25547 6.21936 
8
Lattice="10.000000 0.000000 0.000000 0.000000 10.000000 0.000000 0.000000 0.000000 10.000000" Properties=species:S:1:pos:R:3 dft_energy=-6224.35981589
C 4.29942 4.22523 4.55956 
C 5.08402 5.43456 4.98176 
O 5.92701 5.33745 5.99687 
O 5.01796 6.48751 4.37068 
H 3.42135 4.58135 4.01651 
H 3.93789 3.59776 5.38108 
H 4.84813 3.60237 3.86951 
H 6.25340 6.26112 6.20077 
8
Lattice="10.000000 0.000000 0.000000 0.000000 10.000000 0.000000 0.000000 0.000000 10.000000" Properties=species:S:1:pos:R:3 dft_energy=-6224.36561108
C 4.29611 4.22513 4.56048 
C 5.08325 5.43538 4.98125 
O 5.92534 5.33649 5.99699 
O 5.02117 6.48867 4.37117 
H 3.41997 4.56221 4.01622 
H 3.95715 3.59623 5.37865 
H 4.84855 3.60737 3.87486 
H 6.25692 6.26339 6.18067 
8
Lattice="10.000000 0.000000 0.000000 0.000000 10.000000 0.000000 0.000000 0.000000 10.000000" Properties=species:S:1:pos:R:3 dft_energy=-6224.37150066
C 4.29257 4.22477 4.56159 
C 5.08222 5.43622 4.98060 
O 5.92384 5.33552 5.99746 
O 5.02432 6.48985 4.37172 
H 3.41764 4.54363 4.01590 
H 3.97648 3.59464 5.37809 
H 4.85031 3.61181 3.87910 
H 6.25866 6.26336 6.15893 
8
Lattice="10.000000 0.000000 0.000000 0.000000 10.000000 0.000000 0.000000 0.000000 10.000000" Properties=species:S:1:pos:R:3 dft_energy=-6224.37823551
C 4.28916 4.22446 4.56251 
C 5.08126 5.43753 4.97952 
O 5.92285 5.33467 5.99806 
O 5.02764 6.49120 4.37199 
H 3.41413 4.52569 4.01525 
H 3.99610 3.59236 5.37904 
H 4.85322 3.61536 3.88208 
H 6.25946 6.26168 6.13558 
8
Lattice="10.000000 0.000000 0.000000 0.000000 10.000000 0.000000 0.000000 0.000000 10.000000" Properties=species:S:1:pos:R:3 dft_energy=-6224.38622575
C 4.28552 4.22418 4.56355 
C 5.08033 5.43906 4.97842 
O 5.92192 5.33387 5.99912 
O 5.03079 6.49246 4.37240 
H 3.40872 4.50866 4.01396 
H 4.01515 3.58895 5.38195 
H 4.85727 3.61857 3.88379 
H 6.25968 6.25764 6.11163 
8
Lattice="10.000000 0.000000 0.000000 0.000000 10.000000 0.000000 0.000000 0.000000 10.000000" Properties=species:S:1:pos:R:3 dft_energy=-6224.39428579
C 4.28200 4.22388 4.56461 
C 5.07951 5.44063 4.97702 
O 5.92118 5.33298 6.00046 
O 5.03380 6.49376 4.37273 
H 3.40219 4.49279 4.01238 
H 4.03317 3.58498 5.38667 
H 4.86308 3.62069 3.88403 
H 6.25937 6.25223 6.08632 
8
Lattice="10.000000 0.000000 0.000000 0.000000 10.000000 0.000000 0.000000 0.000000 10.000000" Properties=species:S:1:pos:R:3 dft_energy=-6224.39946863
C 4.27852 4.22344 4.56578 
C 5.07857 5.44220 4.97530 
O 5.92045 5.33205 6.00195 
O 5.03669 6.49511 4.37292 
H 3.39509 4.47850 4.01052 
H 4.05015 3.57995 5.39291 
H 4.87037 3.62155 3.88276 
H 6.25857 6.24609 6.06052 
8
Lattice="10.000000 0.000000 0.000000 0.000000 10.000000 0.000000 0.000000 0.000000 10.000000" Properties=species:S:1:pos:R:3 dft_energy=-6224.39926181
C 4.27507 4.22294 4.56709 
C 5.07746 5.44376 4.97359 
O 5.91974 5.33118 6.00368 
O 5.03941 6.49683 4.37322 
H 3.38668 4.46562 4.00890 
H 4.06669 3.57433 5.40143 
H 4.87930 3.62184 3.88138 
H 6.25844 6.24018 6.03411 
8
Lattice="10.000000 0.000000 0.000000 0.000000 10.000000 0.000000 0.000000 0.000000 10.000000" Properties=species:S:1:pos:R:3 dft_energy=-6224.39076989
C 4.27154 4.22241 4.56827 
C 5.07622 5.44530 4.97155 
O 5.91907 5.33019 6.00542 
O 5.04214 6.49854 4.37335 
H 3.37734 4.45326 4.00763 
H 4.08282 3.56766 5.41158 
H 4.88921 3.62194 3.87940 
H 6.25872 6.23441 6.00741 
8
Lattice="10.000000 0.000000 0.000000 0.000000 10.000000 0.000000 0.000000 0.000000 10.000000" Properties=species:S:1:pos:R:3 dft_energy=-6224.37385466
C 4.26824 4.22192 4.56947 
C 5.07489 5.44696 4.96927 
O 5.91858 5.32889 6.00705 
O 5.04498 6.50036 4.37329 
H 3.36751 4.44167 4.00642 
H 4.09800 3.56115 5.42263 
H 4.89987 3.62218 3.87672 
H 6.26038 6.22987 5.98140 
8
Lattice="10.000000 0.000000 0.000000 0.000000 10.000000 0.000000 0.000000 0.000000 10.000000" Properties=species:S:1:pos:R:3 dft_energy=-6224.34944537
C 4.26525 4.22119 4.57084 
C 5.07348 5.44858 4.96697 
O 5.91826 5.32738 6.00883 
O 5.04781 6.50221 4.37321 
H 3.35711 4.43084 4.00583 
H 4.11232 3.55439 5.43422 
H 4.91026 3.62291 3.87435 
H 6.26370 6.22617 5.95678 
8
Lattice="10.000000 0.000000 0.000000 0.000000 10.000000 0.000000 0.000000 0.000000 10.000000" Properties=species:S:1:pos:R:3 dft_energy=-6224.31947034
C 4.26236 4.22033 4.57217 
C 5.07192 5.45012 4.96462 
O 5.91775 5.32592 6.01045 
O 5.05045 6.50401 4.37302 
H 3.34633 4.42055 4.00676 
H 4.12530 3.54826 5.44630 
H 4.91975 3.62494 3.87242 
H 6.26891 6.22314 5.93320 
8
Lattice="10.000000 0.000000 0.000000 0.000000 10.000000 0.000000 0.000000 0.000000 10.000000" Properties=species:S:1:pos:R:3 dft_energy=-6224.28823436
C 4.25981 4.21923 4.57356 
C 5.07026 5.45142 4.96222 
O 5.91716 5.32453 6.01232 
O 5.05317 6.50585 4.37272 
H 3.33604 4.41137 4.00952 
H 4.13781 3.54323 5.45702 
H 4.92820 3.62754 3.87217 
H 6.27574 6.22146 5.91108 
8
Lattice="10.000000 0.000000 0.000000 0.000000 10.000000 0.000000 0.000000 0.000000 10.000000" Properties=species:S:1:pos:R:3 dft_energy=-6224.25841569
C 4.25757 4.21810 4.57488 
C 5.06848 5.45259 4.95972 
O 5.91646 5.32321 6.01422 
O 5.05578 6.50771 4.37232 
H 3.32642 4.40273 4.01363 
H 4.14954 3.53920 5.46589 
H 4.93553 3.63126 3.87404 
H 6.28355 6.22096 5.89076 
8
Lattice="10.000000 0.000000 0.000000 0.000000 10.000000 0.000000 0.000000 0.000000 10.000000" Properties=species:S:1:pos:R:3 dft_energy=-6224.23263989
C 4.25562 4.21679 4.57617 
C 5.06650 5.45375 4.95716 
O 5.91582 5.32178 6.01592 
O 5.05838 6.50947 4.37172 
H 3.31795 4.39517 4.01886 
H 4.16052 3.53659 5.47309 
H 4.94125 3.63616 3.87723 
H 6.29283 6.22110 5.87282 
8
Lattice="10.000000 0.000000 0.000000 0.000000 10.000000 0.000000 0.000000 0.000000 10.000000" Properties=species:S:1:pos:R:3 dft_energy=-6224.21473763
C 4.25392 4.21533 4.57757 
C 5.06427 5.45476 4.95456 
O 5.91506 5.32042 6.01761 
O 5.06081 6.51130 4.37078 
H 3.31084 4.38873 4.02640 
H 4.17090 3.53628 5.47825 
H 4.94482 3.64232 3.88127 
H 6.30359 6.22045 5.85725 
8
Lattice="10.000000 0.000000 0.000000 0.000000 10.000000 0.000000 0.000000 0.000000 10.000000" Properties=species:S:1:pos:R:3 dft_energy=-6224.20481613
C 4.25250 4.21351 4.57915 
C 5.06216 5.45559 4.95199 
O 5.91436 5.31918 6.01906 
O 5.06319 6.51319 4.36952 
H 3.30557 4.38282 4.03527 
H 4.18093 3.53730 5.48110 
H 4.94665 3.64962 3.88608 
H 6.31617 6.21868 5.84424 
8
Lattice="10.000000 0.000000 0.000000 0.000000 10.000000 0.000000 0.000000 0.000000 10.000000" Properties=species:S:1:pos:R:3 dft_energy=-6224.20285533
C 4.25122 4.21161 4.58099 
C 5.05991 5.45637 4.94951 
O 5.91354 5.31813 6.02051 
O 5.06531 6.51541 4.36819 
H 3.30159 4.37749 4.04560 
H 4.19028 3.54030 5.48122 
H 4.94642 3.65825 3.89156 
H 6.32994 6.21539 5.83361 
8
Lattice="10.000000 0.000000 0.000000 0.000000 10.000000 0.000000 0.000000 0.000000 10.000000" Properties=species:S:1:pos:R:3 dft_energy=-6224.20664080
C 4.25023 4.20935 4.58304 
C 5.05772 5.45670 4.94733 
O 5.91264 5.31703 6.02186 
O 5.06739 6.51760 4.36685 
H 3.29923 4.37188 4.05769 
H 4.19844 3.54480 5.47910 
H 4.94456 3.66717 3.89843 
H 6.34443 6.21033 5.82572 
8