8
Lattice="10.000000 0.000000 0.000000 0.000000 10.000000 0.000000 0.000000 0.000000 10.000000" Properties=species:S:1:pos:R:3:dft_forces:R:3 dft_energy=-6223.36091833
C 5.90175 5.87592 6.17222 -3.47140 1.95874 -0.87352
C 4.97215 5.41960 4.84181 2.37648 -1.86449 0.49368
O 5.02228 6.49972 4.01665 -0.28617 0.05665 0.01787
O 4.48365 4.29822 4.62559 0.89984 3.33343 0.54331
H 5.76308 7.01084 6.21120 0.77171 -1.34499 -0.50414
H 6.94688 5.62830 6.43389 -0.81411 -0.56282 -0.82503
H 5.15554 5.65106 6.93816 0.66313 -0.80111 0.59770
H 4.57610 6.44929 3.14642 -0.12905 -0.78181 0.55542
8
Lattice="10.000000 0.000000 0.000000 0.000000 10.000000 0.000000 0.000000 0.000000 10.000000" Properties=species:S:1:pos:R:3:dft_forces:R:3 dft_energy=-6223.59164943
C 5.60959 6.27199 6.07498 0.22396 -2.84000 -2.70423
C 4.99909 5.50517 4.85350 -1.00722 1.28261 3.95001
O 5.83840 5.34371 3.85642 0.04337 0.53442 -2.45890
O 3.87359 5.11949 4.88753 -1.84047 -0.75511 -0.94678
H 5.35800 5.80862 7.00646 0.10146 -0.53069 0.31199
H 5.23606 7.24610 6.07298 -0.07529 1.75215 -0.29349
H 6.57480 6.06954 5.65163 1.63818 1.20291 1.55688
H 5.22955 5.34710 3.06628 0.92933 -0.63386 0.59193
8
Lattice="10.000000 0.000000 0.000000 0.000000 10.000000 0.000000 0.000000 0.000000 10.000000" Properties=species:S:1:pos:R:3:dft_forces:R:3 dft_energy=-6223.06701983
C 5.92462 4.28011 4.58730 -3.15381 2.65708 -2.65916
C 4.99093 5.57952 4.75885 -2.22434 -0.14596 2.18053
O 5.62426 6.49941 5.54552 0.30707 3.59413 0.93294
O 3.79242 5.70436 4.53538 1.56878 -0.62277 -0.83310
H 6.32782 4.11133 5.51639 1.69247 -0.11838 1.97479
H 6.59219 4.70088 3.77753 -0.25263 -1.62099 0.87233
H 5.22220 3.41596 4.40140 1.01806 1.08940 -0.66337
H 5.17609 7.51753 5.81686 1.02179 -4.83610 -1.79622
8
Lattice="10.000000 0.000000 0.000000 0.000000 10.000000 0.000000 0.000000 0.000000 10.000000" Properties=species:S:1:pos:R:3:dft_forces:R:3 dft_energy=-6222.62784766
C 6.10101 5.30627 5.81545 4.49229 -2.80647 5.19361
C 5.23936 5.55496 4.81333 -8.30604 -2.76202 -2.38515
O 3.97587 4.84779 4.76154 0.14297 -1.14610 0.99012
O 5.18998 6.49199 4.15601 1.66167 5.86883 -4.38186
H 6.52293 6.30448 5.85013 0.07428 0.29826 1.52999
H 7.08494 4.75044 5.62284 -1.85987 -0.01271 -0.04361
H 5.51091 4.87014 6.72108 1.61180 1.06449 -1.39461
H 3.23379 5.37846 4.32736 2.18317 -0.51167 0.48339
8
Lattice="10.000000 0.000000 0.000000 0.000000 10.000000 0.000000 0.000000 0.000000 10.000000" Properties=species:S:1:pos:R:3:dft_forces:R:3 dft_energy=-6223.40602173
C 3.69596 5.20999 4.96402 -1.01449 1.86350 2.31200
C 5.19206 5.60880 4.93540 -4.71284 -1.83958 8.16405
O 5.50541 5.60399 3.77325 -0.52572 -0.26636 -7.81958
O 5.84907 5.78895 5.94231 0.45872 0.36975 -0.60343
H 3.39123 4.87478 5.98292 0.42252 0.79107 -0.39897
H 3.37340 4.36753 4.38898 0.31117 -0.13276 -1.22469
H 3.10926 6.17126 4.71736 0.64458 -1.69029 0.21289
H 6.38352 5.75206 3.62955 4.38914 0.89252 -0.62509
8
Lattice="10.000000 0.000000 0.000000 0.000000 10.000000 0.000000 0.000000 0.000000 10.000000" Properties=species:S:1:pos:R:3:dft_forces:R:3 dft_energy=-6223.69524503
C 5.76408 5.14605 6.07148 0.59119 1.28530 -0.45134
C 4.98655 5.63721 4.96033 -1.26819 0.30733 -3.04893
O 5.71299 5.48461 3.74591 0.82250 -0.82729 2.54578
O 3.81311 5.92603 4.90720 0.61927 0.39567 0.57174
H 5.27048 5.25803 6.98982 -0.66340 -0.74025 1.15737
H 6.73690 5.55900 6.11237 0.91291 1.41704 0.12988
H 6.08695 4.26014 5.63946 -0.00617 -2.94836 0.29285
H 5.43547 6.14328 3.14370 -1.02828 1.10811 -1.20667
8
Lattice="10.000000 0.000000 0.000000 0.000000 10.000000 0.000000 0.000000 0.000000 10.000000" Properties=species:S:1:pos:R:3:dft_forces:R:3 dft_energy=-6223.88318094
C 5.14623 4.81956 3.56419 0.35277 1.29203 -0.36035
C 5.05486 5.42718 4.98838 -2.38992 -0.68649 0.83940
O 5.66841 6.61302 4.88796 0.70747 -0.14627 -0.83951
O 4.42135 5.14622 6.03289 1.65227 -0.08924 -2.97267
H 6.00849 4.16306 3.46166 -0.30350 -0.54597 0.23334
H 5.47694 5.71972 2.96781 -0.62652 -1.05441 0.35291
H 4.21630 4.42658 3.09408 0.70425 0.00443 0.91573
H 5.35827 7.04415 5.66102 -0.10255 1.23658 1.80688
8
Lattice="10.000000 0.000000 0.000000 0.000000 10.000000 0.000000 0.000000 0.000000 10.000000" Properties=species:S:1:pos:R:3:dft_forces:R:3 dft_energy=-6223.34953528
C 5.27343 5.20038 6.27017 -7.35417 -7.08884 -3.67122
C 5.00122 5.60680 4.80796 -0.27418 -1.64176 3.42630
O 6.12660 5.61975 4.09896 0.18675 0.31507 -0.73671
O 3.87580 5.77099 4.46698 -1.31652 0.82431 -2.08606
H 4.30657 5.20360 6.89228 1.58910 0.02327 -1.23343
H 5.86524 5.84219 6.53069 7.12395 6.69488 3.94853
H 5.68807 4.17119 6.18828 -0.02933 0.80659 0.55141
H 5.87407 5.83588 3.18726 0.04632 0.05855 -0.20690
8
Lattice="10.000000 0.000000 0.000000 0.000000 10.000000 0.000000 0.000000 0.000000 10.000000" Properties=species:S:1:pos:R:3:dft_forces:R:3 dft_energy=-6223.67029373
C 5.26534 5.19521 6.28518 -0.86514 1.23310 -4.83647
C 5.01203 5.59613 4.81215 -1.50436 -0.77461 2.81182
O 6.15179 5.63239 4.09803 -0.90774 0.18145 0.06958
O 3.84703 5.77955 4.46507 2.03823 0.12494 -0.98565
H 4.35155 5.26144 6.68571 -3.10890 0.44712 2.17719
H 6.00273 5.74500 6.65770 2.85892 2.63591 1.99157
H 5.57983 4.25035 6.27413 1.24955 -4.10643 0.01727
H 5.81377 5.88164 3.23844 0.20900 0.24638 -1.24270
8
Lattice="10.000000 0.000000 0.000000 0.000000 10.000000 0.000000 0.000000 0.000000 10.000000" Properties=species:S:1:pos:R:3:dft_forces:R:3 dft_energy=-6223.43006689
C 4.56847 5.26775 6.13290 1.15400 -3.91567 -3.62987
C 5.02007 5.56679 4.74752 1.28722 -0.00493 3.95781
O 6.31772 5.88895 4.84019 1.49700 0.62028 -1.31650
O 4.29758 5.48938 3.84599 -1.77636 0.21794 -4.60138
H 3.89306 5.94465 6.35380 -3.16725 3.13237 2.04858
H 5.42749 5.08032 6.61480 2.64305 0.36304 3.05339
H 4.18505 4.26726 5.99794 -1.03370 -0.18368 0.26883
H 6.74171 6.12660 3.98572 -0.60816 -0.22549 0.22903
8
Lattice="10.000000 0.000000 0.000000 0.000000 10.000000 0.000000 0.000000 0.000000 10.000000" Properties=species:S:1:pos:R:3:dft_forces:R:3 dft_energy=-6223.63466676
C 5.18400 5.20382 6.25925 5.69576 0.54617 -2.29244
C 5.02751 5.55051 4.78980 -3.37415 1.25292 3.76729
O 6.10435 5.54936 4.08490 2.58137 0.17601 -1.49679
O 3.90639 5.86435 4.47491 -0.47256 0.34698 -1.89657
H 4.45106 5.29913 6.93050 -3.55478 0.35686 1.64280
H 6.07220 5.71165 6.72233 -0.61342 -0.04942 -0.68542
H 5.56187 4.23131 6.18475 0.31589 -2.09709 0.56701
H 6.06341 6.10016 3.27348 -0.59485 -0.54949 0.39447
8
Lattice="10.000000 0.000000 0.000000 0.000000 10.000000 0.000000 0.000000 0.000000 10.000000" Properties=species:S:1:pos:R:3:dft_forces:R:3 dft_energy=-6223.66054851
C 4.40902 5.61021 6.15372 -0.92735 3.30801 3.45232
C 4.99016 5.58496 4.84961 1.98149 -0.70219 -4.65593
O 6.37263 5.44697 4.79360 -0.36918 0.07937 1.57025
O 4.38790 5.58507 3.77883 -0.07061 0.20250 1.40697
H 5.08111 5.18350 6.96998 -1.62395 -0.51731 -1.19002
H 3.28597 5.53029 6.00032 1.48785 -1.08890 0.85344
H 4.39331 6.70590 6.61464 0.38427 -1.57810 -1.44180
H 6.71300 5.23553 3.90585 -0.86447 0.29809 0.02095
8
Lattice="10.000000 0.000000 0.000000 0.000000 10.000000 0.000000 0.000000 0.000000 10.000000" Properties=species:S:1:pos:R:3:dft_forces:R:3 dft_energy=-6223.72504905
C 4.99554 4.89280 6.16410 -3.33590 -1.39203 -2.11469
C 5.01660 5.65103 4.88629 0.89351 0.58197 2.55259
O 5.48538 4.90224 3.97530 1.39980 -3.54116 -2.46120
O 4.81528 6.80378 4.65992 -1.07964 2.21378 0.49920
H 4.06303 5.14137 6.58868 -0.53708 0.88430 1.79042
H 5.86051 4.84467 6.70667 2.03938 0.71190 1.62503
H 4.77407 3.85656 5.89607 0.37652 -0.15346 -0.22475
H 5.63188 5.49584 3.25632 0.24422 0.69484 -1.63476
8
Lattice="10.000000 0.000000 0.000000 0.000000 10.000000 0.000000 0.000000 0.000000 10.000000" Properties=species:S:1:pos:R:3:dft_forces:R:3 dft_energy=-6223.69572593
C 5.18757 5.03731 6.36388 -0.26430 0.58046 -0.87559
C 4.89953 5.59803 4.80229 0.60252 -0.00547 1.47195
O 6.18308 5.68129 4.32042 -0.68996 0.54274 -1.77946
O 3.91672 5.89900 4.13911 1.35643 -0.74729 1.64596
H 4.50838 5.44036 7.22525 0.96531 -1.01049 -2.03649
H 6.25871 5.28467 6.60062 -1.14808 0.24780 -0.32766
H 5.25240 3.92033 6.25639 -0.77505 0.94662 0.34078
H 6.11928 6.00174 3.36115 -0.04366 -0.56052 1.56310
8
Lattice="10.000000 0.000000 0.000000 0.000000 10.000000 0.000000 0.000000 0.000000 10.000000" Properties=species:S:1:pos:R:3:dft_forces:R:3 dft_energy=-6223.73182706
C 4.27549 6.65727 5.46962 -0.83542 1.47915 0.34510
C 4.98181 5.46203 4.83970 -0.61407 -1.05856 -2.30769
O 6.25410 5.40796 5.31531 0.46383 0.33466 -0.41912
O 4.65925 4.70638 3.90715 -0.07160 1.84799 1.97182
H 4.72622 6.74628 6.53836 -1.34821 0.06554 -1.77273
H 3.09338 6.86422 5.34033 2.82725 -1.42719 0.63880
H 4.67273 7.54515 4.88117 -0.03665 -0.97754 0.75607
H 6.77705 5.05717 4.55572 -0.38104 -0.23846 0.78338
8
Lattice="10.000000 0.000000 0.000000 0.000000 10.000000 0.000000 0.000000 0.000000 10.000000" Properties=species:S:1:pos:R:3:dft_forces:R:3 dft_energy=-6223.66258594
C 4.24899 4.76585 5.88973 -0.47432 0.27439 -1.62280
C 5.12702 5.64568 4.81120 -6.10139 -0.34706 0.11282
O 6.40015 5.53891 4.87059 3.70866 1.47249 0.04834
O 4.45181 6.23955 3.95795 1.91276 -0.33882 1.30090
H 4.73711 3.83520 6.24654 -0.07502 0.76413 -0.15712
H 3.38536 4.48501 5.20580 1.01521 0.06658 0.96893
H 3.73646 5.31064 6.74743 1.27120 -0.22405 -1.12264
H 6.86981 6.31327 4.39810 -1.23420 -1.67246 0.47239
8
Lattice="10.000000 0.000000 0.000000 0.000000 10.000000 0.000000 0.000000 0.000000 10.000000" Properties=species:S:1:pos:R:3:dft_forces:R:3 dft_energy=-6223.89682448
C 4.09648 4.90887 5.72981 -0.10216 0.15474 3.07759
C 5.09580 5.55124 4.87235 0.05702 0.30559 0.55904
O 6.40261 5.31660 4.81243 0.46098 -1.99221 1.62640
O 4.65759 6.39236 4.17244 -1.26795 2.98955 -2.88015
H 4.45251 4.61428 6.73247 0.24802 -0.14503 -0.46118
H 3.77844 4.01884 5.23987 -0.75943 -0.63842 -0.34397
H 3.27924 5.66803 5.96658 0.98541 -1.26116 -0.93734
H 6.68974 5.90861 4.12133 0.37223 0.56830 -0.64248
8
Lattice="10.000000 0.000000 0.000000 0.000000 10.000000 0.000000 0.000000 0.000000 10.000000" Properties=species:S:1:pos:R:3:dft_forces:R:3 dft_energy=-6223.61274162
C 5.82428 6.72049 5.51764 1.52891 -2.51509 -0.08621
C 5.04219 5.46561 5.03934 -1.00718 1.08460 -2.50434
O 5.45530 5.16359 3.80397 1.32776 -0.22180 -2.56942
O 4.01759 4.89759 5.30535 -0.95677 0.25425 3.18440
H 5.32584 7.60698 5.29446 -1.84423 1.29812 -0.03536
H 6.68870 6.85759 4.78451 -0.50074 -0.76696 1.67794
H 6.02403 6.64188 6.60714 0.33576 0.27569 -0.89038
H 4.73246 4.63679 3.34226 1.13406 0.59711 1.21394
8
Lattice="10.000000 0.000000 0.000000 0.000000 10.000000 0.000000 0.000000 0.000000 10.000000" Properties=species:S:1:pos:R:3:dft_forces:R:3 dft_energy=-6223.86553256
C 5.51747 5.15733 6.19543 -0.08127 0.06812 -2.07632
C 4.96299 5.63734 4.93769 -0.10358 -0.03558 -3.48863
O 5.99486 5.70096 3.95822 0.00432 -0.03029 1.93365
O 3.80517 5.74117 4.63835 -0.24782 0.51147 0.06335
H 4.85464 5.41166 6.93577 -1.40865 0.22868 2.02975
H 6.42728 5.66137 6.24359 1.98298 0.01245 0.80176
H 5.51413 4.12030 5.92056 0.72976 -0.87297 0.85199
H 5.71512 5.93053 3.06931 -0.89215 0.11120 -0.10585
8
Lattice="10.000000 0.000000 0.000000 0.000000 10.000000 0.000000 0.000000 0.000000 10.000000" Properties=species:S:1:pos:R:3:dft_forces:R:3 dft_energy=-6223.94281348
C 4.03905 6.04883 5.89953 3.57742 -0.08820 -1.75501
C 5.04999 5.54271 4.78059 -1.28128 3.11705 1.53002
O 5.72652 4.45542 5.00407 -0.40167 -2.43368 1.59729
O 5.38402 6.27603 3.89852 -0.08081 1.00774 -1.95800
H 4.14918 7.14877 5.92041 -0.40705 -0.73167 -0.14467
H 4.51925 5.61718 6.74062 -0.31594 -0.31560 1.45342
H 3.08797 5.68059 5.70082 -1.79514 -0.47740 -0.05410
H 6.27274 4.34092 4.22987 0.70725 -0.09672 -0.66621
8
Lattice="10.000000 0.000000 0.000000 0.000000 10.000000 0.000000 0.000000 0.000000 10.000000" Properties=species:S:1:pos:R:3:dft_forces:R:3 dft_energy=-6223.66812199
C 6.13876 5.15170 5.80807 1.99307 2.52840 2.37823
C 4.98758 5.56732 4.93303 -1.21129 -0.70683 -0.46025
O 5.28808 5.38376 3.57718 -1.58518 1.28531 0.10139
O 3.93927 6.04242 5.33868 1.19802 -0.34141 -0.70327
H 6.78301 6.16506 5.73221 -0.62616 -2.61101 -0.06662
H 6.72530 4.22249 5.74968 -0.15976 0.52746 -1.51323
H 6.00532 5.12109 6.94265 -1.16228 0.45872 -1.54157
H 4.56259 5.84771 3.00151 1.55002 -1.16112 1.79783
8
Lattice="10.000000 0.000000 0.000000 0.000000 10.000000 0.000000 0.000000 0.000000 10.000000" Properties=species:S:1:pos:R:3:dft_forces:R:3 dft_energy=-6223.94708772
C 5.36469 5.15026 6.37912 -0.68502 -1.56215 -3.85273
C 4.99533 5.55076 4.88240 -1.61826 1.51090 -0.46696
O 6.03264 5.67114 4.04038 2.19878 -0.81528 1.02582
O 3.91275 5.82674 4.37088 -0.01647 -0.85968 1.89304
H 4.60110 5.24067 7.09967 -1.48945 -0.15182 0.19392
H 6.14001 5.71295 6.75138 2.20839 1.35447 0.35011
H 5.70356 4.10774 6.22491 -0.14830 0.40031 0.63723
H 5.70476 5.81691 3.14048 -0.46808 0.10787 0.22626
8
Lattice="10.000000 0.000000 0.000000 0.000000 10.000000 0.000000 0.000000 0.000000 10.000000" Properties=species:S:1:pos:R:3:dft_forces:R:3 dft_energy=-6223.68009208
C 4.92644 5.03077 6.24334 1.79733 -1.25152 -1.33650
C 5.00008 5.57693 4.86460 -2.17560 0.72045 -4.20667
O 6.27645 5.79812 4.34745 0.01877 -0.96216 3.89330
O 3.99539 5.75934 4.17182 1.54798 -0.09961 0.97096
H 3.94165 4.81218 6.61175 -0.50748 -0.24440 -0.57971
H 5.29239 5.81773 6.83770 1.21359 0.49751 1.34477
H 5.58906 4.11679 6.13140 -0.63655 1.06194 1.14431
H 6.56192 5.98701 3.46462 -1.27818 0.26757 -1.22198
8
Lattice="10.000000 0.000000 0.000000 0.000000 10.000000 0.000000 0.000000 0.000000 10.000000" Properties=species:S:1:pos:R:3:dft_forces:R:3 dft_energy=-6223.93334112
C 5.28042 5.21089 6.18347 0.75046 -2.31433 0.94941
C 4.98810 5.62210 4.84668 -1.03102 0.57257 -0.44570
O 6.11069 5.61900 4.14802 1.42499 -0.25355 -2.34035
O 3.85980 5.80029 4.46715 -0.20922 0.22115 -1.13013
H 4.39425 5.22115 6.73380 -1.43834 -0.18697 0.96244
H 6.02383 5.69440 6.75839 1.11534 0.66970 0.08725
H 5.60295 4.15545 5.98410 -0.16234 0.65610 0.83430
H 6.01778 5.45261 3.17339 -0.47993 0.62743 1.07927
8
Lattice="10.000000 0.000000 0.000000 0.000000 10.000000 0.000000 0.000000 0.000000 10.000000" Properties=species:S:1:pos:R:3:dft_forces:R:3 dft_energy=-6223.61571630
C 5.14511 5.17729 6.28920 3.40581 1.78128 0.03904
C 5.08058 5.67767 4.90842 -3.21251 -2.84294 -3.45905
O 6.10793 5.67417 4.01383 1.13210 0.05030 1.25548
O 3.94362 5.68762 4.43271 0.33221 1.09887 0.15235
H 4.32746 5.54458 6.79756 -1.72517 0.73239 1.11120
H 6.05413 5.55489 6.71202 0.58256 0.51846 0.86844
H 5.26164 4.15012 6.45756 -0.22429 -1.76686 -0.71646
H 5.75101 5.53622 3.10994 -0.31098 0.42772 0.77481
8
Lattice="10.000000 0.000000 0.000000 0.000000 10.000000 0.000000 0.000000 0.000000 10.000000" Properties=species:S:1:pos:R:3:dft_forces:R:3 dft_energy=-6223.69132585
C 3.79825 5.97228 4.14013 -1.39377 -1.81414 0.03869
C 5.04124 5.51095 4.91785 1.77045 0.73294 3.89443
O 6.11699 4.97429 4.29237 -2.87199 0.01613 -3.12132
O 5.22208 5.78150 6.14156 -1.49903 -0.56237 -3.07793
H 2.82730 5.72122 4.79265 2.35424 0.50672 -1.42047
H 3.61850 5.55075 3.03852 0.81470 1.13709 2.56410
H 3.95937 7.05245 4.22771 -0.50102 -0.02287 -0.68542
H 6.83219 4.91524 4.88510 1.32035 0.00214 1.81269
8
Lattice="10.000000 0.000000 0.000000 0.000000 10.000000 0.000000 0.000000 0.000000 10.000000" Properties=species:S:1:pos:R:3:dft_forces:R:3 dft_energy=-6223.70824961
C 4.90518 5.09303 6.26981 3.85942 -0.58893 -2.38295
C 4.94645 5.69451 4.85914 1.82265 -2.56157 0.13803
O 6.30691 5.70910 4.34569 -1.29800 1.39159 0.87839
O 4.00631 5.74390 4.13979 -0.94642 1.17750 -0.75282
H 4.02022 4.66260 6.57681 -2.19460 -0.09460 0.59352
H 5.46175 5.69842 6.92858 -0.03566 1.07026 1.23881
H 5.63475 4.23498 6.20126 -0.66422 0.54192 -0.21319
H 6.40531 6.43036 3.67095 -0.53322 -0.94142 0.52866
8
Lattice="10.000000 0.000000 0.000000 0.000000 10.000000 0.000000 0.000000 0.000000 10.000000" Properties=species:S:1:pos:R:3:dft_forces:R:3 dft_energy=-6223.37739643
C 5.74924 4.49495 5.66634 -3.06525 1.04687 1.91134
C 4.92857 5.59439 4.88094 0.08349 3.45169 6.20519
O 5.19232 5.38324 3.65311 0.40556 1.64788 -4.69894
O 4.43905 6.66008 5.42876 1.56207 -4.30809 -2.68892
H 5.28856 4.45813 6.73645 0.77386 -0.24062 -1.89705
H 6.71390 5.02966 5.82007 -0.21467 -1.20110 -0.61820
H 5.60017 3.51163 5.13441 1.09283 1.11079 0.69115
H 5.20498 6.24344 3.10726 -0.65080 -1.50006 1.10661
8
Lattice="10.000000 0.000000 0.000000 0.000000 10.000000 0.000000 0.000000 0.000000 10.000000" Properties=species:S:1:pos:R:3:dft_forces:R:3 dft_energy=-6223.79337519
C 5.04327 5.03993 6.22268 0.87263 1.33189 4.20387
C 4.99639 5.55013 4.85808 -1.23678 -0.34701 0.78061
O 6.18039 5.66863 4.32067 1.47908 0.81750 -1.14421
O 4.03817 5.90035 4.22317 -1.61703 0.31767 -0.21972
H 4.14101 5.34398 6.91985 1.71890 -0.53963 -1.84282
H 6.03957 5.54935 6.70782 -2.48145 -1.52380 -0.97696
H 5.14940 3.95198 6.28525 0.11069 0.19435 -0.16365
H 5.84364 6.21427 3.57484 1.14757 -0.26442 -0.63943
8
Lattice="10.000000 0.000000 0.000000 0.000000 10.000000 0.000000 0.000000 0.000000 10.000000" Properties=species:S:1:pos:R:3:dft_forces:R:3 dft_energy=-6223.55670069
C 3.83626 5.11868 4.35063 0.91170 -0.45356 0.59729
C 5.11927 5.65283 4.95230 -4.52555 -3.02677 -2.46686
O 5.89671 4.70000 5.30296 6.28284 -0.92359 0.54114
O 5.34825 6.77880 4.91020 2.08399 6.11310 0.37895
H 3.26428 5.85903 3.89589 -0.62795 1.61244 -0.78356
H 3.22549 4.70961 5.09028 -1.00165 -0.95576 1.42911
H 4.03000 4.34965 3.64399 0.35580 -0.73864 -0.59088
H 6.89585 5.14595 5.21057 -3.47899 -1.64863 0.90072
8
Lattice="10.000000 0.000000 0.000000 0.000000 10.000000 0.000000 0.000000 0.000000 10.000000" Properties=species:S:1:pos:R:3:dft_forces:R:3 dft_energy=-6223.34519452
C 3.75190 5.77803 5.57412 3.11603 1.57500 2.03311
C 5.10279 5.62795 4.74667 0.36290 2.79785 0.01226
O 5.59566 4.40822 5.03780 1.58670 -0.54384 -0.14873
O 5.72403 6.50663 4.12079 -1.56923 -2.15128 1.32534
H 3.10192 4.95760 5.25805 0.03176 -0.01716 1.05297
H 3.24268 6.78191 5.56609 0.68704 -1.05616 -0.83074
H 4.31693 5.85031 6.74801 -2.30086 -1.10813 -3.27603
H 6.59277 4.34244 4.86486 -1.91443 0.50507 -0.15831
8
Lattice="10.000000 0.000000 0.000000 0.000000 10.000000 0.000000 0.000000 0.000000 10.000000" Properties=species:S:1:pos:R:3:dft_forces:R:3 dft_energy=-6223.77331941
C 4.73023 5.37417 6.29876 0.08831 0.37062 0.93272
C 5.03038 5.58322 4.75837 0.69526 -0.62434 3.22249
O 6.28007 5.21212 4.40920 1.61501 -0.10057 -2.13930
O 4.19950 6.05739 4.07921 -1.59109 1.00289 -2.35026
H 4.02830 6.18569 6.75524 1.71599 -0.89174 -1.25961
H 5.65670 5.22709 6.92792 -0.96647 0.43548 -0.77009
H 4.09999 4.49295 6.50755 0.40767 -0.09810 -0.72819
H 6.60927 5.34284 3.40553 -1.97262 -0.10241 3.09725
8
Lattice="10.000000 0.000000 0.000000 0.000000 10.000000 0.000000 0.000000 0.000000 10.000000" Properties=species:S:1:pos:R:3:dft_forces:R:3 dft_energy=-6223.39050786
C 5.40251 5.36011 6.28860 -0.78828 1.54003 2.56871
C 4.98316 5.55238 4.88188 -2.16952 1.92645 1.49470
O 6.03385 5.43785 4.10605 -0.17887 0.00812 -1.48019
O 3.88849 5.84089 4.35383 1.45579 -0.75254 1.48774
H 4.73175 5.84137 7.14931 1.00065 -1.40979 -2.28699
H 6.42910 5.81412 6.47864 -1.18887 -1.07269 -0.57062
H 5.37899 4.26935 6.27921 0.45191 -0.14037 1.10099
H 5.37297 5.67269 3.41163 1.41501 -0.11557 -2.32573
8
Lattice="10.000000 0.000000 0.000000 0.000000 10.000000 0.000000 0.000000 0.000000 10.000000" Properties=species:S:1:pos:R:3:dft_forces:R:3 dft_energy=-6222.97376883
C 5.08575 5.19245 6.31077 -0.44057 0.23982 0.57880
C 5.02573 5.54485 4.89529 -4.00368 1.62044 -1.41372
O 6.09731 5.41656 4.16432 1.93785 -0.60302 -1.49987
O 4.06910 6.03182 4.31500 -1.21608 0.07993 0.28860
H 4.49500 5.89361 6.98171 0.62708 -0.63693 -1.31816
H 6.16070 5.57395 6.26254 -0.37519 -2.18455 2.41593
H 4.51059 4.14865 6.42704 2.63610 1.80632 0.11194
H 5.71296 5.71006 3.28525 0.85660 -0.34187 0.84333
8
Lattice="10.000000 0.000000 0.000000 0.000000 10.000000 0.000000 0.000000 0.000000 10.000000" Properties=species:S:1:pos:R:3:dft_forces:R:3 dft_energy=-6223.59041646
C 5.30470 6.91312 5.41343 -2.08859 1.99692 -0.63162
C 5.02344 5.57683 4.78638 1.31537 -0.65275 -2.77892
O 4.90432 4.62326 5.63748 -1.21955 0.52581 5.85762
O 5.07066 5.23109 3.62714 0.00579 1.67745 -1.37476
H 4.53389 7.17476 6.23117 1.24429 -0.38674 -1.40180
H 5.42435 7.76756 4.64841 -0.73755 -1.54188 1.03157
H 6.25872 6.86095 5.85981 1.13484 -0.34589 0.86933
H 5.15748 3.72812 5.54625 0.35098 -1.24310 -1.56533
8
Lattice="10.000000 0.000000 0.000000 0.000000 10.000000 0.000000 0.000000 0.000000 10.000000" Properties=species:S:1:pos:R:3:dft_forces:R:3 dft_energy=-6223.86558160
C 5.37579 4.53950 5.83399 1.23967 -1.04013 1.30452
C 5.03276 5.50345 4.80861 -1.46920 0.60156 -1.40799
O 5.41864 6.83557 5.14666 1.13616 -4.41897 2.06285
O 4.48266 5.17532 3.75600 0.96747 1.53646 1.46968
H 4.81422 3.58406 5.79090 0.54415 0.63331 -0.65112
H 5.21233 4.90138 6.86352 0.60549 0.21034 -0.51927
H 6.47238 4.41681 5.57370 -0.95395 -0.44921 1.04515
H 4.93236 7.24517 4.51077 -2.06373 2.94426 -3.31000
8
Lattice="10.000000 0.000000 0.000000 0.000000 10.000000 0.000000 0.000000 0.000000 10.000000" Properties=species:S:1:pos:R:3:dft_forces:R:3 dft_energy=-6223.12025956
C 5.30467 5.65194 6.35341 1.82148 1.20000 -1.71612
C 4.96595 5.50813 4.82638 -1.38004 -4.46547 -1.25112
O 5.77590 6.31248 4.13143 1.45856 1.17723 -1.74800
O 4.14462 4.65148 4.32341 3.19331 3.76096 2.11243
H 5.12849 6.72444 6.54297 -1.21472 -0.72237 0.91124
H 6.38255 5.66207 6.69898 -0.42238 -0.23645 -1.67927
H 4.99078 4.78621 6.88031 -1.72078 0.01389 0.83016
H 6.01964 6.27480 3.12663 -1.74757 -0.72968 2.51471
8
Lattice="10.000000 0.000000 0.000000 0.000000 10.000000 0.000000 0.000000 0.000000 10.000000" Properties=species:S:1:pos:R:3:dft_forces:R:3 dft_energy=-6223.65690262
C 5.26931 5.16318 6.27106 -1.13081 3.39403 -2.81725
C 5.00697 5.58485 4.81785 -0.57972 -0.76958 2.78249
O 6.16702 5.65201 4.09182 -0.19419 -0.83388 3.60850
O 3.85969 5.79265 4.46795 1.32832 0.20009 -1.28293
H 4.30459 5.27129 6.70297 -0.22576 0.28448 1.18061
H 6.10745 5.74789 6.53404 0.60171 0.75635 1.31387
H 5.55327 4.21520 6.19481 1.22694 -4.32436 0.12438
H 5.77026 5.87359 3.31611 -1.05695 1.28183 -4.89715
8
Lattice="10.000000 0.000000 0.000000 0.000000 10.000000 0.000000 0.000000 0.000000 10.000000" Properties=species:S:1:pos:R:3:dft_forces:R:3 dft_energy=-6224.11125152
C 4.18285 4.50394 5.24043 0.38980 -0.75849 2.08908
C 5.08740 5.67461 4.95117 -2.69322 -0.66373 -0.89725
O 6.25615 5.21242 4.49175 0.41714 -0.01568 -0.00115
O 4.70844 6.81940 4.89997 0.74721 0.38256 0.20147
H 4.25698 3.78301 4.41631 0.17083 0.04634 0.47388
H 3.11844 4.72453 5.42662 0.67240 0.44462 -0.15278
H 4.60216 4.07961 6.21928 -0.65675 -0.04177 -1.44309
H 6.51636 5.92137 3.90246 0.95904 0.60915 -0.27414
8
Lattice="10.000000 0.000000 0.000000 0.000000 10.000000 0.000000 0.000000 0.000000 10.000000" Properties=species:S:1:pos:R:3:dft_forces:R:3 dft_energy=-6223.65564454
C 5.30732 5.42274 6.37133 2.57786 2.30876 -1.79174
C 5.04553 5.57437 4.87772 -1.87262 -0.46079 -2.57861
O 6.05922 5.72015 3.88362 0.73276 -0.58110 4.73842
O 3.87207 5.45646 4.52103 1.67626 0.49586 0.32629
H 5.01241 4.50989 6.67492 -0.78024 -3.65086 0.53744
H 4.62833 6.02255 6.89329 -1.03318 1.52210 0.42151
H 6.29983 5.60973 6.76929 0.22454 0.09565 -0.41282
H 5.79041 5.98168 3.02554 -1.55250 0.27651 -1.23831
8
Lattice="10.000000 0.000000 0.000000 0.000000 10.000000 0.000000 0.000000 0.000000 10.000000" Properties=species:S:1:pos:R:3:dft_forces:R:3 dft_energy=-6223.49529397
C 4.83018 6.16920 6.17116 2.65770 1.01707 -1.45425
C 5.11240 5.44803 4.81423 -2.80665 -0.80968 3.11716
O 5.57921 6.29535 3.82999 -1.52329 -1.80109 -0.74778
O 4.79962 4.25682 4.83303 1.25576 1.54044 -2.20941
H 4.47237 7.21519 5.96694 0.50038 -0.97568 0.46205
H 5.97089 6.18867 6.44670 -2.21133 0.43791 0.70540
H 4.16036 5.60890 6.85963 0.89818 0.23157 -0.70512
H 5.09079 5.96354 3.01478 1.23672 0.36233 0.85226
8
Lattice="10.000000 0.000000 0.000000 0.000000 10.000000 0.000000 0.000000 0.000000 10.000000" Properties=species:S:1:pos:R:3:dft_forces:R:3 dft_energy=-6223.65294120
C 5.74102 5.77601 6.09847 3.27173 2.63656 1.09606
C 4.96824 5.49017 4.93140 -1.32556 -0.76020 -4.25827
O 5.17848 6.47580 3.93550 -0.07141 -0.23530 -1.00303
O 4.40738 4.43133 4.71111 0.17354 1.22490 0.31491
H 6.20178 6.83747 6.25306 -1.04866 -1.88377 -0.86908
H 6.57704 5.08557 5.92451 0.23197 0.23742 0.38326
H 5.33584 5.52015 7.02817 -1.11353 -0.71369 1.13800
H 5.01360 6.30082 2.92161 -0.10370 -0.50816 3.21292
8
Lattice="10.000000 0.000000 0.000000 0.000000 10.000000 0.000000 0.000000 0.000000 10.000000" Properties=species:S:1:pos:R:3:dft_forces:R:3 dft_energy=-6223.11807900
C 5.11321 4.72596 6.11528 2.45477 10.94037 1.39886
C 4.91316 5.53091 4.77678 2.50782 -0.64564 0.35555
O 5.41738 6.80432 4.98610 -0.77690 -0.53855 1.34691
O 4.80187 5.02723 3.68319 -0.90252 0.47027 0.50256
H 4.48891 5.08504 7.01293 1.10160 0.27565 -1.44905
H 6.24565 4.92183 6.34249 -2.22987 -0.49670 -0.17869
H 4.91091 3.82897 6.11158 -1.81556 -9.45393 -1.16464
H 5.45822 7.43155 4.25740 -0.33792 -0.54682 -0.81084
8
Lattice="10.000000 0.000000 0.000000 0.000000 10.000000 0.000000 0.000000 0.000000 10.000000" Properties=species:S:1:pos:R:3:dft_forces:R:3 dft_energy=-6223.67068189
C 5.30676 5.27751 6.29597 2.36169 -2.63477 -2.21352
C 4.95197 5.42534 4.84868 0.11606 3.82778 -1.64312
O 6.10502 5.74951 4.09815 0.59034 -1.38222 1.89821
O 3.86951 5.70541 4.38992 -0.20835 -1.21027 0.28051
H 4.62850 5.48574 7.00307 -3.51837 0.73275 1.81603
H 6.08648 5.94696 6.50649 1.53584 0.65882 0.00383
H 5.63533 4.25101 6.50018 0.28313 0.21778 -0.07510
H 6.03340 6.15713 3.22737 -1.19599 -0.22849 -0.05372
8
Lattice="10.000000 0.000000 0.000000 0.000000 10.000000 0.000000 0.000000 0.000000 10.000000" Properties=species:S:1:pos:R:3:dft_forces:R:3 dft_energy=-6223.98178703
C 4.05203 4.64077 5.13019 -0.74506 -1.28630 1.03828
C 5.13349 5.59302 4.73572 -1.71003 -1.10275 2.53389
O 5.69839 5.99652 5.92376 1.81366 1.38268 -1.04077
O 5.35476 5.95035 3.64153 1.46727 1.32142 -2.30350
H 4.04800 3.67679 4.48177 -0.18387 1.91004 1.07844
H 3.03752 5.19374 5.14021 1.62133 -1.09391 -0.17147
H 4.36905 4.41586 6.19937 -1.18786 -0.36520 -1.29566
H 6.44595 6.63461 5.71896 -1.07758 -0.77400 0.15439
8
Lattice="10.000000 0.000000 0.000000 0.000000 10.000000 0.000000 0.000000 0.000000 10.000000" Properties=species:S:1:pos:R:3:dft_forces:R:3 dft_energy=-6223.87049965
C 5.38154 5.68701 6.30031 1.91107 -0.87376 2.21192
C 4.96087 5.55167 4.83355 -0.72241 0.24494 1.26374
O 6.06937 5.57421 4.02327 -0.43405 -0.03625 0.37052
O 3.80755 5.42500 4.49676 0.54204 -0.05639 -0.72980
H 6.16124 6.50744 6.40543 -0.66163 -1.28503 -0.20945
H 5.83881 4.66631 6.61129 -0.00834 1.65949 -0.90207
H 4.72623 5.78835 7.25024 -0.19026 0.30078 -2.55306
H 5.85372 5.43177 3.07897 -0.46018 0.05866 0.56073
8
Lattice="10.000000 0.000000 0.000000 0.000000 10.000000 0.000000 0.000000 0.000000 10.000000" Properties=species:S:1:pos:R:3:dft_forces:R:3 dft_energy=-6223.94935795
C 5.27236 4.91852 6.25563 0.88162 2.48053 0.38271
C 5.01281 5.58380 4.86835 -0.79627 -0.34814 1.20969
O 6.06074 5.72102 4.04150 0.62410 0.33246 0.19129
O 3.93227 5.90804 4.45028 -1.18856 0.28700 0.31004
H 4.54454 5.21226 7.12554 0.94356 -0.59037 -2.28778
H 6.29770 5.35324 6.59682 -1.49668 -1.58373 -0.58420
H 5.21608 3.86269 5.98521 0.49851 -0.12177 0.76232
H 5.62503 6.24406 3.32826 0.52581 -0.46638 0.02950
8
Lattice="10.000000 0.000000 0.000000 0.000000 10.000000 0.000000 0.000000 0.000000 10.000000" Properties=species:S:1:pos:R:3:dft_forces:R:3 dft_energy=-6223.83265462
C 6.42319 5.18515 4.51471 0.49765 4.95503 0.63770
C 5.05338 5.59606 4.99731 -0.06993 -2.93910 1.49364
O 4.34714 6.24916 4.05405 2.91462 0.46420 -0.48400
O 4.62691 5.12560 6.05402 -0.31365 1.46436 -1.42358
H 6.35911 4.22620 4.11103 -0.05212 -1.37979 -1.17698
H 7.07375 5.15122 5.42817 -0.34287 0.18020 -1.11254
H 6.66098 6.09040 3.78323 0.41602 -2.51612 1.19271
H 3.44774 6.11451 4.17949 -3.04450 -0.21262 0.86703
8
Lattice="10.000000 0.000000 0.000000 0.000000 10.000000 0.000000 0.000000 0.000000 10.000000" Properties=species:S:1:pos:R:3:dft_forces:R:3 dft_energy=-6223.83857067
C 4.94640 5.77041 6.31786 0.34145 -0.95810 2.74649
C 5.08085 5.70586 4.86015 0.38372 -1.01537 -3.68917
O 5.47138 4.33996 4.43252 -0.83771 2.14315 1.36228
O 4.83489 6.52848 3.98712 0.28499 -1.02305 1.83587
H 4.48649 6.67634 6.77997 0.85830 -0.23064 -0.98573
H 5.91720 5.45512 6.92376 -2.09309 0.59495 -1.52771
H 4.15699 5.00453 6.50612 0.78372 0.10612 0.19366
H 5.12160 4.24665 3.52886 0.29379 0.37679 0.06436
8
Lattice="10.000000 0.000000 0.000000 0.000000 10.000000 0.000000 0.000000 0.000000 10.000000" Properties=species:S:1:pos:R:3:dft_forces:R:3 dft_energy=-6223.32159885
C 5.15416 5.97830 6.32024 -3.58858 -1.31726 -1.14752
C 5.11185 5.35616 4.91849 -0.23690 4.43751 -1.57143
O 5.54723 6.33701 3.99628 -1.42170 0.44447 -1.72035
O 4.55667 4.44010 4.43619 -1.14089 -3.03903 0.63807
H 4.86932 5.18365 6.97403 1.23878 -0.88355 1.07436
H 4.11479 6.50061 6.48484 2.25500 0.10839 -1.03800
H 6.03713 6.54270 6.44078 0.61840 0.65418 0.70547
H 4.93580 6.27344 3.11692 2.28062 -0.40587 3.06434
8
Lattice="10.000000 0.000000 0.000000 0.000000 10.000000 0.000000 0.000000 0.000000 10.000000" Properties=species:S:1:pos:R:3:dft_forces:R:3 dft_energy=-6223.54283974
C 5.19955 5.03517 6.21949 4.95369 -1.75084 -1.75571
C 5.00443 5.62055 4.92774 -0.85499 -1.06108 -3.99507
O 6.09810 5.68209 4.07474 0.94098 -0.36133 1.85814
O 3.93569 5.85796 4.44674 -1.69507 0.91085 -0.06590
H 4.56578 5.21662 6.94660 -4.09726 0.46694 2.86036
H 6.01376 5.60727 6.52571 2.19536 0.90990 1.14171
H 5.64706 4.01262 6.21896 -0.81961 0.67012 -0.30652
H 5.82391 5.80610 3.15525 -0.63300 0.20806 0.28307
8
Lattice="10.000000 0.000000 0.000000 0.000000 10.000000 0.000000 0.000000 0.000000 10.000000" Properties=species:S:1:pos:R:3:dft_forces:R:3 dft_energy=-6223.60864531
C 4.97311 5.01320 6.22201 -1.09171 -2.35379 2.07374
C 4.91406 5.54859 4.89991 3.62309 2.37161 -4.64290
O 6.24317 5.56730 4.31824 -0.28038 -0.08178 1.07029
O 4.09694 6.06016 4.18289 -1.68328 -0.36966 1.18518
H 4.36170 4.05218 6.15215 1.24355 0.54418 0.11384