157
Lattice="12.000000 0.000000 0.000000 0.000000 12.000000 0.000000 0.000000 0.000000 12.000000" Properties=species:S:1:pos:R:3:dft_forces:R:3 dft_energy=-5889.06220709
Zn 9.74016 9.39701 7.57458 -0.41154 -0.48619 0.12729
O 2.93270 11.95620 9.30935 -0.54060 0.81911 -0.08925
H 2.47888 0.22927 8.47570 0.39224 -0.39472 0.41216
H 3.38835 11.11375 9.19124 0.16357 -0.43797 -0.33466
O 9.03603 2.39123 8.35913 -0.95869 1.33571 -0.04084
H 8.52592 2.84684 7.62676 0.52340 -0.63477 0.30221
H 8.85415 3.07235 9.07326 0.36906 -0.82863 -0.31555
O 11.61744 6.52645 0.50160 -0.98030 -0.18677 0.91833
H 11.14549 6.75795 1.35172 0.36086 -0.33332 -0.86621
H 0.36688 7.14146 0.49521 0.56028 0.44030 -0.09001
O 0.75475 3.88216 11.59732 -0.30850 0.56734 0.15438
H 1.72075 3.89614 11.76402 -0.23234 0.18976 0.02635
H 0.35713 4.76953 11.84813 0.51561 -0.71774 -0.11552
O 1.97088 8.37019 7.75865 -0.12768 0.14322 -0.45476
H 2.58840 8.01903 7.09175 0.12595 0.08021 -0.36731
H 2.14807 7.76576 8.49171 -0.11680 -0.18602 0.57460
O 7.29124 0.17030 9.84719 0.09266 0.22801 -0.91774
H 8.21243 11.87961 9.71822 -0.06931 -0.03103 0.22121
H 7.01333 0.01593 10.75119 0.01511 -0.20486 0.71086
O 1.01578 7.87913 4.29536 0.33838 1.08104 0.61966
H 0.87697 8.42971 5.11364 0.13021 -0.44605 -0.71286
H 0.47608 7.08324 4.42660 -0.40195 -0.49887 0.07821
O 6.68145 0.62098 4.62745 0.04536 -0.60767 -0.16373
H 7.47104 0.03252 4.61209 -0.27348 0.01339 -0.09048
H 7.01514 1.45052 4.97702 0.15736 0.68598 0.26013
O 8.39317 6.63823 11.46282 -0.07321 -0.19228 1.17478
H 9.30712 6.44258 11.77771 -0.23854 0.11119 -0.27556
H 7.86737 6.58013 0.31219 0.34109 0.13757 -0.92635
O 7.88760 4.57582 3.35762 -0.91042 0.37989 0.62363
H 7.25968 5.16256 3.85362 0.38356 -0.58248 -0.37140
H 8.63163 5.16160 3.18892 0.59241 0.27325 -0.19478
O 4.47386 9.44615 8.04515 -0.15693 -0.25072 0.56275
H 4.12473 8.79938 8.70987 0.24022 0.42341 -0.40464
H 5.03600 8.91891 7.44654 0.01535 -0.06879 -0.06244
O 6.12947 8.67667 10.27619 -0.87710 0.57001 0.25911
H 6.70165 8.67351 11.06487 0.31819 -0.32422 -0.24808
H 6.43528 8.17874 9.49325 0.25719 -0.07064 0.27649
O 11.71292 9.09879 8.87047 0.00419 -0.36899 0.29201
H 0.03509 8.52401 9.59056 -0.13070 0.11804 -0.10569
H 0.06545 9.97515 9.02009 0.38444 0.66702 0.23615
O 6.71810 8.38144 1.46874 -0.96226 1.61026 0.44047
H 6.13855 8.68449 2.23187 0.62790 -0.57969 -0.80185
H 6.89690 9.25249 1.00959 -0.12129 -0.94636 0.28087
O 0.71700 5.73344 9.05712 -0.99289 -0.53951 0.49177
H 0.20957 5.02766 8.59769 0.40575 0.11058 -0.45601
H 0.22037 5.66931 9.90924 0.49392 0.42426 -0.12749
O 3.70528 11.61745 6.37455 0.08437 0.16088 -0.40826
H 3.85109 0.47594 5.93939 -0.25856 0.24195 0.17608
H 4.36224 11.08803 5.89293 0.03496 -0.41716 0.11997
O 3.14594 4.35114 5.77768 -1.14035 -1.07979 -0.24003
H 3.85523 4.97688 5.82987 0.98665 0.79964 -0.14500
H 3.06658 4.05720 4.84879 0.07156 0.12869 0.15129
O 2.98313 10.62744 3.27487 0.12542 -0.41803 0.24880
H 2.62337 11.21571 2.58450 0.06671 0.22753 -0.08066
H 3.37452 11.15754 3.99938 -0.09528 0.01324 -0.23133
O 11.00613 5.97600 4.84511 0.07465 0.46426 -1.09233
H 11.05461 5.52015 5.69543 -0.50332 -0.48264 0.14558
H 10.15556 5.95850 4.33857 0.45663 -0.29475 0.82237
O 4.23791 6.82960 7.04580 0.09265 -0.53952 -0.51540
H 3.75199 6.00850 7.27232 0.08687 0.28650 0.15743
H 4.62318 6.62802 6.15763 -0.12163 0.29221 0.46452
O 9.31658 8.19932 1.92775 1.10001 1.04893 0.41542
H 8.42278 8.58672 2.11284 0.22509 -0.23026 -0.05430
H 9.96915 8.94096 2.13067 -0.79340 -0.94964 -0.27532
O 8.29516 4.91233 7.07766 0.07446 -0.14607 -0.63259
H 9.18683 4.94209 6.66905 -0.21014 0.04767 0.37039
H 8.34863 5.04427 8.03649 0.29181 0.05760 0.20064
O 0.80806 3.56527 7.04758 0.47448 1.52345 -0.01565
H 0.49601 2.66007 7.09347 -0.47247 -0.60699 -0.51097
H 0.61998 4.09508 6.22852 -0.09848 -0.96279 0.54749
O 6.00457 3.52824 6.36507 0.21821 1.48261 -0.70867
H 5.48654 4.32410 6.65792 0.25635 -0.72822 -0.00221
H 6.60517 3.94342 5.68369 -0.41133 -0.61712 0.56395
O 9.02861 9.08985 9.53712 0.01488 0.62156 -0.26812
H 8.30853 9.60109 9.93105 -0.12498 0.13403 -0.05967
H 8.95659 8.20632 9.89019 -0.02382 -0.80061 0.28316
O 5.65486 1.14491 7.65847 0.25977 0.21244 0.55424
H 6.10991 1.81657 7.08636 -0.20146 -0.20004 0.27923
H 5.84918 1.39254 8.60179 -0.07599 -0.16369 -0.68749
O 6.01208 8.19930 5.19833 -0.21186 -0.63834 -0.66894
H 6.73824 8.07694 5.81826 0.39102 0.02887 0.43238
H 5.64884 9.07823 5.32759 -0.17063 0.59745 0.17534
O 5.37797 3.61231 2.40279 0.14808 0.08877 -0.09054
H 4.65025 3.62009 1.76823 -0.52866 -0.14584 -0.08818
H 6.07076 4.05486 1.88098 0.22430 -0.00731 0.17805
O 7.01772 7.21171 7.98995 0.41405 1.03979 -0.32721
H 6.60676 6.35811 8.06862 -0.54181 -0.99222 0.10372
H 7.53233 7.34050 8.80171 0.31580 -0.14933 -0.02540
O 10.16054 10.08494 5.57380 0.04529 -0.05440 -0.65620
H 10.90658 9.56306 5.24817 0.24616 -0.16994 -0.00471
H 9.78268 10.47377 4.74974 -0.18853 -0.03542 0.38251
O 10.89907 10.39026 0.18345 -0.59526 -0.68407 0.31953
H 10.48681 9.70831 11.61465 0.05520 0.14155 0.15334
H 11.45602 10.89770 11.59269 0.53668 0.46481 -0.48567
O 7.52662 10.11327 6.82076 0.91293 0.54471 0.12145
H 7.70726 11.07482 6.95872 -0.26826 -0.58308 -0.12266
H 6.70258 9.91591 7.29218 -0.12505 -0.05143 0.21093
O 5.84446 0.22280 1.17619 1.09313 -0.15734 0.27463
H 5.75548 11.94095 0.25654 -0.35735 -0.01737 -0.23745
H 5.01240 0.50961 1.55448 -0.78680 0.14266 -0.02078
O 10.11049 4.63817 9.83641 0.46728 0.28750 -0.30024
H 10.20235 3.83329 10.36710 -0.13690 -0.13473 0.22067
H 9.20738 4.98485 9.91800 -0.24966 -0.06048 0.19640
O 11.75985 0.94757 10.49679 -1.40218 -0.45044 0.15457
H 0.56406 1.21822 10.92243 1.17223 0.38392 0.40974
H 11.15939 0.77793 11.26158 0.21544 0.12190 -0.58844
O 7.36951 3.81811 10.67814 -0.24063 -0.24726 -0.12638
H 6.86654 4.61194 10.96112 0.04746 0.10075 0.05585
H 6.66521 3.19374 10.40048 0.24140 0.07197 0.02561
O 0.78044 10.78573 6.02540 0.99876 -0.20874 0.41928
H 0.85265 10.06187 6.70766 -0.00658 0.54299 -0.49508
H 1.71137 11.14811 5.91813 -0.77470 -0.34741 0.14939
O 5.28159 5.59699 11.47700 -1.61828 0.52200 1.47328
H 4.57406 5.38228 0.17433 1.19881 -0.13996 -1.04792
H 5.12329 6.57179 11.45096 0.42223 -0.28552 -0.34816
O 1.41703 4.69180 3.03513 -0.20009 0.24233 -0.28511
H 0.70835 5.10343 3.58811 0.24693 -0.11170 -0.38374
H 1.31901 5.00809 2.10061 -0.06965 -0.12141 0.70144
O 1.48797 8.63969 0.99682 0.00115 0.60406 -0.11438
H 1.71691 9.20125 0.21643 -0.16634 -0.29363 0.49718
H 1.07082 9.23726 1.66212 0.21377 -0.27723 -0.38836
O 11.35824 2.75340 2.13134 1.07690 -0.08087 0.46407
H 0.31476 2.75885 2.46194 -1.30529 -0.03124 -0.33984
H 10.80462 2.36000 2.84149 0.20844 0.08944 -0.07868
O 4.76757 6.38579 2.63743 -0.01689 0.49901 -0.07365
H 3.81810 6.23530 2.44449 0.33095 -0.29574 0.16878
H 5.22066 5.58727 2.98120 -0.39257 -0.11204 -0.08120
O 1.91787 1.43266 3.60823 -0.58682 1.42727 0.19021
H 1.82677 2.04127 4.38777 0.15334 -0.63716 -0.58506
H 2.33330 0.61692 3.89255 0.32717 -0.57695 0.43489
O 2.99522 6.87457 10.14839 0.40672 0.44230 0.41834
H 2.29588 7.50210 10.41504 0.01335 -0.18159 -0.05235
H 2.61781 6.24778 9.51260 -0.29145 -0.25718 -0.18804
O 4.48501 3.98944 9.27225 0.18909 -0.01155 -0.93453
H 4.64141 3.29717 8.58211 -0.13379 0.32806 0.62028
H 4.29307 3.56842 10.11954 -0.06843 -0.36776 0.27423
O 7.78103 2.38100 1.47156 -1.18987 1.15584 1.36685
H 8.33749 1.94623 0.84751 1.04751 -0.35671 -1.18920
H 7.80410 3.37189 1.42161 0.30125 -0.89306 -0.24569
O 10.26448 11.27881 7.93889 0.61662 -0.27970 0.24155
H 9.74885 11.85902 7.38900 -0.39111 0.73614 -0.17323
H 10.32314 11.58974 8.84879 -0.15155 0.25361 0.13546
O 8.04315 10.28964 3.77309 0.27919 0.42137 -0.81082
H 7.56268 9.73991 4.40610 -0.40983 -0.37816 0.12444
H 7.65344 10.21177 2.86964 0.04324 -0.07481 0.62426
O 10.60050 7.54900 7.22371 -0.84252 -0.11821 -0.50523
H 10.66645 7.11716 6.35594 -0.35744 0.16194 -0.31067
H 11.46289 7.37645 7.59102 0.73388 -0.01291 0.58750
O 10.74380 11.46569 3.01721 0.35555 -1.09814 -0.45989
H 11.53445 10.87502 2.94821 -0.58523 0.38051 0.01401
H 11.04814 0.22164 3.51893 0.22722 0.72272 0.45160
O 2.56437 0.30839 0.80448 -0.81896 -0.19652 -0.08156
H 2.03097 11.60177 0.35923 0.41192 0.45538 0.27034
H 1.88897 0.92350 1.18014 0.39683 -0.26871 -0.16358
O 9.96219 2.32616 5.17578 1.37012 0.16040 -0.39253
H 9.12140 2.16186 5.58969 -0.92123 -0.22467 0.58100
H 10.66999 2.15220 5.83561 -0.42928 0.06109 -0.23457
157
Lattice="12.000000 0.000000 0.000000 0.000000 12.000000 0.000000 0.000000 0.000000 12.000000" Properties=species:S:1:pos:R:3:dft_forces:R:3 dft_energy=-5888.61681686
Zn 9.30574 10.12324 8.09550 0.41631 -0.61272 -0.31751
O 1.95912 10.50605 9.19180 0.00906 1.76060 0.57169
H 2.87641 10.84600 9.20463 -0.18204 -0.26736 -0.07853
H 1.94146 9.62002 8.86137 0.20183 -1.41456 -0.58518
O 10.04789 1.60054 9.88788 -0.26807 -0.92417 0.73777
H 9.10728 1.34693 9.90949 0.10094 -0.06470 0.09664
H 10.07841 2.28856 9.23746 0.16821 0.99617 -0.87117
O 10.89150 7.34317 0.68865 -0.42074 -0.32258 0.70913
H 10.27059 6.72211 1.13029 0.27935 0.24107 -0.07650
H 10.87238 7.05578 11.77742 0.08581 -0.16132 -0.97283
O 0.44652 5.06699 10.03249 -1.34645 0.94571 1.02260
H 11.54589 4.85898 9.70666 0.48291 -0.11026 -0.07493
H 1.11588 4.59059 9.56893 0.83112 -0.90740 -0.92214
O 1.05119 7.68111 9.10869 -0.24355 0.38747 0.13570
H 1.64323 7.09872 8.63313 0.75685 -0.36795 -0.41394
H 0.20362 7.24133 8.96512 -0.50566 -0.01031 0.11900
O 8.36637 9.31762 0.74603 -0.76465 -0.26171 -0.40622
H 8.98202 10.04361 0.66392 0.54414 0.69167 0.06124
H 8.73216 8.70042 1.38758 0.31816 -0.36091 0.46279
O 0.26466 8.80551 5.15530 1.11469 0.62712 -0.65578
H 11.51002 8.35684 5.50852 -1.08064 -0.62949 0.52198
H 0.20540 8.65892 4.19570 0.09259 -0.00438 -0.05814
O 6.38710 0.91890 3.31061 0.01989 0.67000 0.66275
H 5.91142 0.76622 2.46938 -0.09914 -0.07821 -0.36896
H 6.13761 1.85028 3.54655 0.20285 -0.68127 -0.01415
O 6.92472 3.35798 9.92951 -0.79230 0.68929 0.36515
H 7.47177 3.21614 10.71715 0.43746 -0.37060 0.08121
H 6.31418 4.05656 10.29765 0.35881 -0.54489 -0.57278
O 7.26158 5.35316 11.70967 -0.42571 -0.37878 0.68465
H 8.12963 5.16340 11.35084 0.84352 0.13636 -0.47426
H 7.09216 4.52852 0.22095 -0.12498 0.48188 -0.08760
O 4.44273 9.49669 8.05540 -0.09624 0.77125 0.54580
H 4.58897 8.68718 7.54863 0.05028 -0.46975 0.08115
H 4.45873 9.34724 9.03054 0.06238 -0.25463 -0.65714
O 5.73483 8.64475 0.38499 0.59122 -0.10089 0.57923
H 6.66437 8.99823 0.37626 -0.21888 0.24461 -0.60788
H 5.83739 8.23298 1.26681 -0.64587 -0.23690 -0.00420
O 0.06303 9.58041 11.15117 0.40716 -0.07236 -0.44220
H 0.67526 9.30414 11.86094 -0.05621 -0.00412 0.03374
H 0.51487 9.32343 10.30561 -0.24889 0.14845 0.52473
O 6.24432 9.99011 3.88120 1.43761 1.08371 0.86603
H 6.36872 10.99499 3.83278 -0.36935 -1.05603 -0.12665
H 6.96321 9.76085 4.55902 -0.92166 0.00993 -0.98429
O 11.74436 3.73849 6.62050 0.54383 -0.07859 -0.96799
H 11.38601 4.58663 6.27341 -0.00469 -0.23031 0.21189
H 0.31178 3.41133 5.86470 -0.52101 0.23065 0.81449
O 3.98270 2.63011 5.31709 0.48603 -0.39008 0.53797
H 4.85285 2.58151 5.76797 -0.13965 0.25236 -0.22748
H 3.55487 1.85065 5.71449 -0.34433 -0.02876 -0.14341
O 1.99958 3.69977 3.91064 -0.64054 0.58262 0.05632
H 1.55370 4.27036 3.23802 0.43792 -0.46933 0.25195
H 2.69943 3.15968 3.50438 0.02067 0.04587 -0.25388
O 3.11884 8.21320 2.98974 0.27004 0.28174 -0.63428
H 4.05412 8.52832 2.96560 -0.49688 -0.13194 -0.11764
H 2.68256 8.66698 2.23143 0.13077 -0.20134 0.33833
O 10.27236 4.25911 1.09395 -0.08515 0.01408 -0.93464
H 9.67041 4.26252 0.32151 -0.47882 0.03934 0.49074
H 11.07912 4.19843 0.55600 0.59860 -0.01104 0.41972
O 2.03435 6.60687 6.25689 -0.29991 0.12224 -0.13266
H 2.69004 5.89509 6.22825 0.20131 -0.19758 0.00839
H 1.38056 6.38550 5.56307 0.12588 0.07038 0.15558
O 10.13821 8.75695 2.80168 -0.02711 -1.09975 -0.81833
H 10.90463 8.49337 2.23058 -0.42415 0.31542 0.46711
H 10.41798 9.44458 3.39369 0.49328 0.96596 0.76224
O 10.74041 5.70897 4.49663 -0.23946 0.03755 -0.05825
H 9.95602 6.16735 4.85447 0.06202 -0.05879 -0.05836
H 11.47080 5.96477 5.08201 0.18854 0.11259 0.04278
O 9.72699 1.74777 5.60280 0.60822 0.98256 1.46431
H 10.03378 2.09778 6.49548 -0.24802 0.06561 -1.29307
H 9.53368 0.85718 5.89654 -0.34897 -1.06801 -0.18314
O 8.66298 5.66649 7.12693 0.28574 -0.46524 -0.03597
H 8.49514 5.59040 6.15924 0.16831 -0.14874 0.43399
H 9.22054 4.90097 7.43050 -0.47772 0.59574 -0.46554
O 9.49927 9.03534 10.22987 1.35819 0.68689 -0.87105
H 10.42396 9.38253 10.44800 -0.98932 -0.47119 0.00877
H 9.02774 8.93287 11.07681 -0.35355 0.03119 0.41357
O 5.17446 0.87842 9.73358 -0.28345 -0.29374 -0.34259
H 5.41923 0.53349 8.84018 0.04132 0.17043 0.17672
H 4.26260 0.53868 9.85751 0.19532 0.13842 0.09329
O 5.52947 0.24553 6.82426 0.37182 0.80930 0.08480
H 6.44999 0.50357 6.58616 -0.48285 -0.30067 0.06225
H 5.41503 11.29907 6.67623 0.09544 -0.49682 -0.11405
O 6.37833 4.24535 4.61195 0.01681 -0.13132 -0.32941
H 6.29629 4.06334 3.64924 0.03106 0.06184 0.37359
H 6.30738 3.37607 5.05449 0.08876 0.15467 -0.08639
O 6.61923 7.59634 8.80858 0.52334 -0.54667 -0.61279
H 5.93858 7.47657 8.12965 0.00001 -0.17184 -0.26657
H 6.16802 8.12161 9.45985 -0.37786 0.62983 0.93233
O 8.52831 10.03185 5.79223 1.30811 -0.02410 0.10898
H 7.60754 10.16118 6.07179 -0.05349 0.67587 -0.03196
H 9.07680 10.82934 5.54646 -1.15071 -0.54252 0.21303
O 11.83057 11.49707 3.77288 -0.86879 0.71690 0.21711
H 11.13075 11.81197 4.39801 0.41908 -0.11926 -0.50283
H 0.29829 10.82849 4.28104 0.44266 -0.58053 0.33119
O 7.54182 10.58161 8.55445 0.71312 0.11557 0.47713
H 6.82688 9.96492 8.61707 -0.74948 -0.65451 -0.03102
H 7.23979 11.39079 8.16367 -0.42310 0.65666 -0.31797
O 3.81953 11.33959 2.99621 0.31241 0.19793 -0.37967
H 2.90629 11.08502 3.22759 -0.03710 0.10502 -0.22182
H 3.84058 11.78392 2.10800 -0.24929 -0.41053 0.64385
O 9.31483 6.35229 9.76321 0.13577 -0.30652 0.01490
H 8.35752 6.43919 9.55561 0.23569 0.27215 -0.03171
H 9.75971 7.23572 9.70999 -0.38296 -0.11730 -0.01382
O 0.99826 0.62136 10.95611 0.49114 1.10880 0.79317
H 1.35939 1.48747 11.29924 -0.36136 -0.97734 -0.16472
H 0.81954 0.83295 10.03330 -0.19876 -0.08369 -0.62256
O 5.20696 4.55329 7.71737 -0.43334 0.47449 -0.49108
H 4.74257 5.31803 8.15698 0.28258 -0.44919 -0.08676
H 5.71179 4.09848 8.40662 0.21181 -0.17380 0.31452
O 3.82692 9.59632 5.17166 0.44217 0.28322 0.52367
H 3.40752 8.78288 4.82953 -0.02745 -0.11691 -0.01647
H 4.81380 9.49920 5.05951 -0.61712 0.03315 -0.06010
O 4.99251 4.83703 0.86205 -1.61743 -0.78018 0.97586
H 5.17666 5.73370 0.55545 -0.12917 0.55415 -0.07591
H 4.08707 4.81480 1.31790 1.43416 0.21076 -0.76616
O 1.22232 6.49172 1.83022 0.10098 0.05605 -0.74253
H 1.28029 6.79845 0.89996 -0.04338 0.61997 0.25616
H 1.36190 5.56246 1.61317 0.03830 -0.74392 0.50296
O 2.68168 7.77536 11.47740 0.15323 0.28287 -0.41096
H 2.47934 8.11800 10.56773 0.09517 -0.26140 0.56044
H 3.65658 7.65606 11.51053 -0.23121 0.03479 -0.00936
O 2.47002 1.60840 2.03157 -0.25685 -0.23148 1.85086
H 2.77163 2.41212 1.63321 0.34256 0.82834 -0.96597
H 2.27851 0.90354 1.42661 -0.17456 -0.58235 -1.08203
O 5.69422 7.32532 4.62068 0.17153 -0.13505 0.36078
H 5.29009 7.37205 5.51531 0.01151 -0.00189 -0.42573
H 5.00313 7.47355 3.94965 -0.04582 -0.06291 0.16853
O 5.36477 1.41876 0.86167 -1.38731 0.47279 0.57610
H 5.88405 0.96525 0.19141 0.09266 -0.36609 -0.63445
H 4.41287 1.11411 0.85989 1.05504 0.18714 -0.22722
O 4.29070 6.01159 9.81128 -0.27264 0.04233 0.08760
H 5.07922 6.33500 10.28968 -0.13763 -0.20112 0.09998
H 3.80251 5.35973 10.35839 0.33599 0.24381 -0.03305
O 2.32535 2.27905 8.60515 0.23149 0.91661 -1.46998
H 2.17370 2.29255 9.55324 -0.11890 0.35344 0.69522
H 2.30597 3.20176 8.20578 -0.03259 -1.14291 0.82409
O 6.82798 11.27630 11.46082 0.18009 -0.50334 -1.86098
H 7.76305 11.28160 11.16498 -0.32018 0.10203 0.35476
H 6.74475 11.52317 0.36799 0.25876 0.24808 1.45640
O 10.70811 11.47100 7.82869 -0.66714 0.55888 0.05965
H 10.53933 0.34493 8.24342 -0.00760 -0.37017 -0.17259
H 11.40682 11.08550 8.34636 0.86888 -0.16918 0.32509
O 9.26965 11.78073 2.28733 -0.14466 0.16093 0.08421
H 8.72608 0.53072 2.63691 0.13589 -0.65132 -0.07912
H 8.94980 10.92368 2.64904 -0.05182 0.43189 0.01071
O 10.43783 8.47231 7.48150 -2.06715 -0.58841 -0.38966
H 11.37133 8.49177 7.36668 1.48658 0.27295 0.03829
H 10.10547 7.92522 6.72836 0.10806 0.49547 0.73199
O 1.20868 0.49652 6.95771 -0.39662 -0.73435 -1.45807
H 2.04259 11.99021 7.02280 0.01953 0.09362 0.17183
H 0.81728 0.14038 6.09802 0.36876 0.58430 1.15905
O 2.60407 10.72568 0.38199 -0.09614 0.74668 -0.10432
H 2.51392 11.32585 11.60678 -0.08881 -0.01688 0.29710
H 2.86958 9.89539 11.97416 0.21583 -0.79814 -0.15052
O 8.54759 2.82354 2.88938 1.04308 -0.07079 0.16875
H 9.32541 2.28142 2.62864 -0.14863 0.42381 0.25947
H 7.85540 2.42954 2.35879 -0.83535 -0.21596 -0.42595