31
Lattice="10.000000 0.000000 0.000000 0.000000 10.000000 0.000000 0.000000 0.000000 10.000000" Properties=species:S:1:pos:R:3:dft_forces:R:3 dft_energy=-1110.45221182
Na 0.13867 5.25098 3.99312 0.07640 0.14079 -0.06035
O 4.99189 4.06440 5.96524 0.86597 0.13831 -0.05759
H 5.48147 4.91185 6.11601 -0.36263 -0.53846 -0.08887
H 5.69680 3.40825 5.73465 -0.49939 0.40039 0.14832
O 3.04564 5.71339 1.76776 0.79632 0.30962 -0.07197
H 3.87477 5.35799 2.17623 -0.56784 0.19440 -0.24742
H 3.34333 6.50209 1.24821 -0.24287 -0.51352 0.33063
O 7.89660 7.86591 8.61999 -0.38898 -0.68920 0.36720
H 7.77166 6.96709 8.22360 0.10891 0.59295 0.21604
H 7.48456 7.80048 9.51806 0.28409 0.08892 -0.58576
O 0.62950 3.29911 8.54512 -0.01321 -0.22715 1.07050
H 0.58812 4.11299 9.10769 0.07263 -0.52464 -0.39059
H -0.07278 2.70646 8.91412 0.49813 0.34229 -0.24300
O 1.48966 9.95099 8.10096 0.33366 -0.29552 -0.75713
H 1.30090 10.27971 7.18612 0.09452 -0.18436 0.62335
H 2.13900 9.21474 7.97100 -0.42868 0.48032 0.13342
O 8.95550 4.64908 7.36674 -1.03112 -0.12249 -0.50510
H 9.19892 3.71426 7.14886 -0.13319 0.51290 0.04246
H 7.97462 4.68691 7.23625 0.59078 0.06622 0.08355
O 2.12966 -0.17031 2.46991 2.39229 2.84013 -3.23738
H 3.11984 -0.16912 2.48160 -0.68557 -0.03445 -0.06285
H 1.88588 0.67420 2.01387 0.12607 -0.52924 0.31376
O 5.18458 2.59230 1.79414 0.13987 0.76793 -0.38950
H 6.05014 3.03417 1.60398 -0.55012 -0.32921 0.14593
H 4.50342 3.21935 1.44282 0.40759 -0.43254 0.24519
O 9.64313 2.59750 5.34240 -0.26616 0.24461 -0.80202
H 9.46017 2.05935 4.53152 0.13106 0.29751 0.55286
H 9.39907 3.52248 5.08661 0.09789 -0.67495 0.23877
O 1.08484 8.59214 3.94604 -2.12215 -1.62318 2.19274
H 1.88188 9.16358 3.80894 -0.18821 -0.30564 0.64146
H 0.32048 9.16639 3.68798 0.46394 -0.39276 0.15333
31
Lattice="10.000000 0.000000 0.000000 0.000000 10.000000 0.000000 0.000000 0.000000 10.000000" Properties=species:S:1:pos:R:3:dft_forces:R:3 dft_energy=-1111.12050243
Na 0.21792 8.97017 5.82498 0.11508 0.01452 -0.13618
O 1.69718 4.82137 7.64651 0.86682 0.03074 -0.12354
H 2.30790 4.06445 7.46025 -0.43534 0.46429 0.12705
H 2.28601 5.61740 7.66142 -0.42758 -0.49934 -0.00086
O 8.30070 1.63389 1.77125 -1.67280 0.70628 1.10553
H 8.34211 1.58721 2.75954 -0.01227 -0.00911 -0.65212
H 7.76491 2.44520 1.58341 0.32785 -0.53996 0.08750
O 4.01919 1.52137 8.92958 0.54007 0.55964 -0.40252
H 4.99750 1.43801 8.80082 -0.64872 0.01364 0.10817
H 3.78487 2.38229 8.50003 0.10457 -0.56876 0.29173
O 4.82541 4.40162 2.56611 0.16411 -0.63096 -0.88753
H 5.71291 4.17134 2.19204 -0.56217 0.17082 0.28138
H 4.17781 4.00133 1.93289 0.39273 0.27174 0.43797
O 6.35745 8.21863 6.44275 0.53914 -0.22646 -0.57009
H 6.06612 7.77037 5.60920 0.08264 0.21297 0.46992
H 7.34293 8.27427 6.36316 -0.63593 -0.01387 0.09442
O 8.11353 7.91599 9.98115 0.44946 0.72812 -0.19904
H 9.07231 8.10080 10.14604 -0.62931 -0.16438 -0.08877
H 7.77479 8.73609 9.54152 0.18049 -0.56245 0.28774
O 6.65301 4.46789 5.61370 0.78385 0.33441 -0.17702
H 7.58543 4.13639 5.65001 -0.62698 0.16794 -0.00369
H 6.73107 5.39001 5.26130 -0.12212 -0.54733 0.21836
O 2.20760 9.15307 3.63478 0.49491 0.61474 0.06306
H 3.08775 9.20177 4.08596 -0.59414 -0.07682 -0.27567
H 2.15795 9.98337 3.09745 -0.02565 -0.55656 0.34646
O 0.39739 1.44080 0.89305 1.80609 -0.54391 0.04199
H 0.31785 0.52840 1.26962 0.07732 0.57530 -0.29524
H 1.25270 1.78475 1.25463 -0.52536 -0.19079 -0.28283
O 4.87977 6.31475 4.29034 -0.20905 1.01431 -0.21733
H 4.01120 6.78795 4.33801 0.54937 -0.33560 0.00366
H 5.44800 6.89556 3.72432 -0.34707 -0.41314 0.34747
31
Lattice="10.000000 0.000000 0.000000 0.000000 10.000000 0.000000 0.000000 0.000000 10.000000" Properties=species:S:1:pos:R:3:dft_forces:R:3 dft_energy=-1111.37453110
Na 7.80668 5.03872 2.39979 -0.14432 0.03175 0.08383
O 5.18291 4.35033 9.25682 0.51584 0.74665 -0.20654
H 6.17312 4.34440 9.26494 -0.65089 -0.03245 0.02258
H 4.94324 5.22922 8.86862 0.10828 -0.58917 0.26178
O 2.42262 9.08550 8.61049 -0.44453 0.73355 -0.03712
H 2.40250 9.79015 9.30595 0.04886 -0.47336 -0.43045
H 1.79751 9.40724 7.91312 0.41908 -0.25149 0.43499
O 4.15117 6.79458 2.28418 -0.12089 0.91390 0.24587
H 4.90427 7.43293 2.36140 -0.47103 -0.44851 -0.08047
H 3.41164 7.22150 2.78559 0.45724 -0.31571 -0.34481
O 9.28123 1.39481 5.04141 0.48265 0.63444 0.32972
H 9.72708 1.39986 5.92560 -0.30221 -0.04924 -0.55778
H 9.51624 2.26904 4.64004 -0.18050 -0.58721 0.22722
O 0.62871 8.94373 1.07833 0.57794 0.54685 -0.12976
H 1.59565 8.73013 1.07621 -0.64252 0.07386 0.01070
H 0.58784 9.91107 0.87052 -0.01663 -0.63763 0.14017
O 7.69805 7.98724 0.18617 0.16098 0.77256 0.10103
H 8.57762 8.29748 0.51892 -0.39986 -0.20586 -0.16701
H 7.18404 8.81925 0.03079 0.29870 -0.57334 0.08923
O 5.53739 5.39325 4.00744 -0.41530 -0.21355 0.70478
H 5.57647 5.59711 4.97570 0.05527 -0.12741 -0.65484
H 4.61408 5.06730 3.85958 0.63466 0.17521 0.03013
O 5.74149 2.04202 7.89997 -0.56668 0.47289 -0.13551
H 5.69796 2.81040 7.27682 0.06795 -0.51389 0.38730
H 4.92799 2.12867 8.45792 0.52780 -0.08333 -0.32625
O 0.84301 3.04517 7.87914 -0.03052 -0.63708 -0.57717
H 1.50120 2.32403 7.71376 -0.40682 0.49015 0.14299
H 0.12028 2.87658 7.22351 0.43760 0.14916 0.43511
O 9.26753 5.89413 6.83260 0.30444 0.65156 0.50355
H 10.15191 5.95461 7.27399 -0.57191 -0.08536 -0.30959
H 8.80517 6.73187 7.08758 0.26735 -0.56795 -0.19370
31
Lattice="10.000000 0.000000 0.000000 0.000000 10.000000 0.000000 0.000000 0.000000 10.000000" Properties=species:S:1:pos:R:3:dft_forces:R:3 dft_energy=-1070.79515734
Na 3.31857 5.29278 0.77164 -113.29263 159.52623 1148.80820
O 8.99805 4.58013 7.57893 0.52879 0.03404 -0.69845
H 9.47142 3.83063 7.13759 -0.33242 0.46612 0.32417
H 9.25523 5.37947 7.05403 -0.19524 -0.49699 0.37013
O 4.18170 6.90478 6.30586 0.40400 0.46175 -0.62965
H 4.53108 7.82971 6.36114 -0.24625 -0.61002 0.00880
H 4.38985 6.61574 5.38189 -0.15721 0.14803 0.61929
O 8.47815 4.04633 1.25488 0.55399 0.59775 -0.34727
H 9.46748 4.08487 1.23581 -0.64754 -0.07129 0.03534
H 8.18863 4.89603 0.83682 0.15710 -0.56789 0.26462
O 4.57591 3.68078 3.22990 -0.52457 0.08291 0.66669
H 3.58895 3.69727 3.30899 0.63824 -0.02560 -0.08943
H 4.90096 3.77024 4.16100 -0.16848 -0.04530 -0.63228
O 9.96924 6.95187 4.57989 -0.22030 0.17744 -0.82304
H 9.75437 6.31466 3.85297 0.14818 0.38501 0.51018
H 9.88131 7.84488 4.16108 0.06620 -0.56174 0.31029
O 7.54077 9.36437 2.25971 0.83515 0.04409 0.24814
H 8.26327 9.91617 1.86711 -0.50397 -0.34940 0.22596
H 7.97859 8.87163 2.99871 -0.32350 0.29802 -0.47190
O 7.59890 8.74543 8.48900 0.79514 0.36311 0.08703
H 8.34710 8.43626 9.05929 -0.52153 0.16841 -0.36079
H 7.94810 9.55558 8.03921 -0.27299 -0.53124 0.27504
O 0.83753 8.38563 1.27867 0.82860 0.27791 0.05171
H 1.33547 8.93532 0.62253 -0.36834 -0.36285 0.40651
H 1.48617 8.22281 2.00898 -0.46179 0.08047 -0.45598
O 4.39990 4.83771 8.98426 0.19696 -0.19904 -0.18060
H 3.47012 5.07847 9.22542 113.09731 -159.35713 -1147.78785
H 4.76286 4.40446 9.79737 0.03637 0.00473 -0.77640
O 6.68662 5.69688 2.77925 -0.66604 0.30402 -0.48796
H 6.15727 6.53344 2.80310 0.37397 -0.52911 0.02574
H 6.30139 5.18087 2.02696 0.24281 0.28757 0.50377
31
Lattice="10.000000 0.000000 0.000000 0.000000 10.000000 0.000000 0.000000 0.000000 10.000000" Properties=species:S:1:pos:R:3:dft_forces:R:3 dft_energy=-1098.85681274
Na 9.21566 2.55548 0.55172 -1.18367 -5.35918 -1.32860
O 9.48074 0.47479 6.17254 0.38242 0.74484 -0.26664
H 10.44881 0.65623 6.06999 -0.63111 -0.16515 0.08292
H 9.04022 1.32107 5.90733 0.24885 -0.57992 0.18409
O 8.25409 3.72967 2.62695 -0.08535 0.65689 2.29242
H 8.57464 2.80891 2.80037 -0.34393 0.72577 -0.00136
H 8.91082 4.31159 3.08593 -0.45217 -0.33692 -0.32614
O 2.72887 5.28197 6.74964 0.48226 0.71791 -0.11695
H 3.70879 5.37968 6.85364 -0.64363 -0.10830 -0.05747
H 2.41682 6.18261 6.48120 0.16088 -0.60143 0.17606
O 3.36463 2.00621 2.30233 0.39808 0.48837 -0.60884
H 4.30285 1.94886 1.99078 -0.61378 0.00195 0.23693
H 2.97090 2.74238 1.76975 0.21187 -0.49066 0.37080
O 4.79997 7.35402 2.33756 0.28171 0.40918 -0.72431
H 5.68497 7.27311 1.90071 -0.57271 0.02242 0.32311
H 4.30316 7.99916 1.77403 0.29084 -0.43123 0.40184
O 4.91490 8.11275 5.98944 -0.25822 0.38261 -0.74388
H 5.45581 8.66774 5.37299 -0.32028 -0.37371 0.43566
H 4.01533 8.08779 5.57621 0.57544 -0.01366 0.30956
O 9.05339 4.82091 7.49978 0.03440 -0.62773 0.31332
H 8.33084 4.47420 8.08144 0.37574 0.16537 -0.40110
H 9.85233 4.29517 7.75645 -0.49234 0.35000 -0.23836
O 0.25860 4.53921 0.24765 4.04577 4.77629 -0.10825
H 0.73744 4.27325 -0.57733 -0.86197 0.61617 0.52429
H 0.77600 5.30735 0.59814 2.27862 -2.42969 1.43291
O 9.62741 5.80319 -0.01329 -4.00463 0.65325 -1.18051
H 8.78537 5.42479 -0.37159 0.27354 1.11103 0.08521
H 9.39518 6.10319 0.90140 0.42164 -0.30025 -1.06367
O 1.88813 8.85864 8.54351 0.01466 -0.87627 0.00610
H 2.13969 8.25964 9.29086 -0.15820 0.43461 -0.46716
H 1.65587 8.24544 7.80146 0.14527 0.43744 0.45802
31
Lattice="10.000000 0.000000 0.000000 0.000000 10.000000 0.000000 0.000000 0.000000 10.000000" Properties=species:S:1:pos:R:3:dft_forces:R:3 dft_energy=-1111.34213737
Na 9.50017 5.15644 2.48090 0.09478 0.04633 -0.00982
O 8.23131 1.58471 0.27590 -0.06633 -0.20458 1.20156
H 8.03178 0.61565 0.31748 0.30299 0.70115 0.20933
H 7.99658 1.92518 1.17567 0.16722 -0.11431 -0.56029
O 1.04384 3.91650 0.84279 0.41899 -0.48575 0.28404
H 1.15553 3.06333 1.33294 -0.11421 0.54316 -0.32835
H 1.96241 4.16994 0.57338 -0.46933 -0.07920 0.15666
O 5.03617 7.15541 7.07741 0.19987 0.73165 -0.42785
H 4.42128 7.81664 6.67085 0.37006 -0.46349 0.28336
H 5.94142 7.51000 6.88933 -0.56231 -0.26802 0.14042
O 7.24829 0.18059 3.29965 0.66923 0.50556 0.23487
H 8.10093 0.30640 2.81201 -0.56928 -0.11018 0.27704
H 7.33395 0.75521 4.10155 -0.10036 -0.39277 -0.51650
O 8.72021 7.67770 5.76299 -0.62133 -0.22283 0.57145
H 7.76087 7.51751 5.57692 0.62906 0.11444 0.07857
H 8.81192 7.52988 6.73784 -0.01484 0.10773 -0.64738
O 3.73637 3.87068 9.76784 0.65859 0.59776 -0.31888
H 3.63209 4.81811 9.49929 0.07365 -0.62030 0.15187
H 4.70373 3.68768 9.66152 -0.63384 0.06117 0.10776
O 2.05084 0.44721 1.10726 0.57855 0.56798 -0.28550
H 3.03817 0.42330 1.17950 -0.65471 -0.02466 -0.02390
H 1.85764 1.29068 0.62579 0.07864 -0.55225 0.30864
O 1.05213 7.43156 2.66329 -0.42133 0.63324 -0.36176
H 0.96740 8.31899 3.09444 0.04179 -0.62681 -0.21810
H 0.59600 7.53519 1.79048 0.34516 -0.06118 0.53898
O 7.29481 0.36355 8.28351 0.00443 -0.08218 0.14541
H 7.98342 1.06160 8.42189 -0.41607 -0.38292 -0.22026
H 7.05452 0.06744 9.19738 0.00888 0.08088 -0.77068
O 5.52008 3.88190 4.13899 -0.10556 0.58961 -0.64217
H 6.22297 4.31802 3.59460 -0.43028 -0.31254 0.38363
H 4.67110 4.25983 3.79692 0.53788 -0.27668 0.25785
31
Lattice="10.000000 0.000000 0.000000 0.000000 10.000000 0.000000 0.000000 0.000000 10.000000" Properties=species:S:1:pos:R:3:dft_forces:R:3 dft_energy=-1111.34202549
Na 2.62688 2.70775 1.31798 0.00403 0.04015 0.02103
O 2.16985 5.08291 6.65412 -0.75200 0.53408 -0.06775
H 1.71765 5.65264 7.32607 0.32340 -0.39832 -0.40698
H 1.76058 5.34456 5.79120 0.29405 -0.20644 0.53218
O 4.34454 6.19161 5.53710 0.46565 0.07368 0.74578
H 4.07880 6.78686 6.28253 0.14768 -0.35924 -0.49209
H 5.05110 5.61363 5.92090 -0.46101 0.35796 -0.29224
O 2.82659 5.48328 3.12129 -0.74131 -0.27522 -0.45733
H 2.39512 4.59197 3.12349 0.30629 0.55761 0.04110
H 2.24575 6.03869 2.54272 0.41345 -0.33054 0.38525
O 9.80260 9.38402 3.45782 -0.14436 0.11406 -0.81481
H 10.03356 10.19775 2.94293 -0.14559 -0.51032 0.39183
H 9.41821 8.76619 2.78616 0.25017 0.37787 0.47778
O 7.99074 3.74337 4.03905 0.86625 0.04453 -0.14106
H 8.51578 3.27954 3.33919 -0.38786 0.28687 0.44710
H 8.66078 4.26888 4.54450 -0.47827 -0.33142 -0.30608
O 4.56225 7.86426 1.78430 0.71055 0.35580 0.37807
H 4.66803 8.15311 2.72556 -0.11521 -0.20519 -0.61341
H 5.43659 8.06300 1.36402 -0.59457 -0.14896 0.23503
O 9.45616 1.60576 7.70607 0.84249 -0.15853 0.16518
H 9.84880 1.07267 8.44246 -0.30284 0.34303 -0.47031
H 10.23786 1.95989 7.21198 -0.54710 -0.21361 0.29567
O 8.09735 5.70175 0.68974 0.43461 0.43238 -0.62689
H 8.99057 6.12489 0.75079 -0.58830 -0.29403 0.00500
H 7.80328 5.87597 -0.23965 0.14936 -0.13858 0.62086
O 8.23002 8.78704 6.12026 0.58275 0.47947 -0.04393
H 8.77291 9.30075 6.76987 -0.35903 -0.30657 -0.36211
H 8.61663 9.01606 5.23783 -0.17601 -0.12493 0.36041
O 4.51078 6.18859 8.86213 0.84379 0.20874 -0.08575
H 5.29543 5.61508 9.05196 -0.54247 0.34290 -0.11322
H 4.89897 7.04969 8.56482 -0.29859 -0.54725 0.19168
31
Lattice="10.000000 0.000000 0.000000 0.000000 10.000000 0.000000 0.000000 0.000000 10.000000" Properties=species:S:1:pos:R:3:dft_forces:R:3 dft_energy=-1065.03326854
Na 4.91266 6.80884 0.30507 -1.29065 0.14173 0.04953
O 6.22433 3.32189 2.69173 -0.33093 -0.50789 -0.58881
H 5.38394 3.43012 2.17925 0.54192 -0.02572 0.35482
H 6.61764 2.48041 2.34849 -0.21229 0.55817 0.23934
O 4.82759 4.57518 8.59248 -0.66060 -0.51377 -0.97981
H 4.16893 4.91754 9.24788 0.33356 -0.28828 -0.34113
H 4.50205 4.90587 7.71769 0.25835 -0.23027 0.55336
O 9.65658 5.73854 3.45345 -3.45100 -7.36142 9.29094
H 10.63052 5.74120 3.63249 -0.77271 -0.25628 0.13789
H 9.36168 6.65832 3.67169 -0.19451 -1.01054 0.55899
O 6.93845 8.14402 1.39120 2.02503 0.87969 1.20587
H 7.86589 8.22017 1.05257 -0.57211 -0.04201 0.17329
H 7.03473 8.12682 2.37660 -0.11281 0.00957 -0.65010
O 0.24147 6.93539 2.17102 4.67956 8.59525 -10.47441
H 1.20649 7.05039 1.98096 -0.56649 0.01473 0.05932
H -0.20596 7.12884 1.30906 0.30551 0.01977 0.42576
O 6.99815 1.08800 0.20932 50.10099 -28.83534 45.49363
H 7.55317 0.41156 0.67298 4.88569 -0.71898 3.18250
H 6.11492 0.65320 0.10233 -37.28957 -29.72412 20.31654
O 6.84192 1.84289 10.00468 -0.40107 70.94796 11.63219
H 6.50828 0.91918 9.87800 -23.85300 -15.13643 -61.81701
H 7.26668 2.07398 9.14052 6.53838 3.46561 -18.83359
O 1.95773 2.46467 5.29822 0.23107 -0.67534 0.51274
H 2.25477 2.49400 6.24242 -0.20160 0.02824 -0.62563
H 1.97939 1.50349 5.06104 -0.02946 0.64715 0.11288
O 6.02650 0.26311 7.13269 0.71605 -0.10796 -0.50269
H 6.70619 -0.45449 7.19345 -0.47433 0.45512 -0.00382
H 6.33811 0.83766 6.38880 -0.24377 -0.35095 0.49847
O 9.59924 1.83901 1.42335 -0.10804 0.74211 0.49847
H 9.45215 1.89746 2.40088 0.10155 -0.08564 -0.64291
H 9.53881 2.77539 1.10692 0.04729 -0.63416 0.16340
31
Lattice="10.000000 0.000000 0.000000 0.000000 10.000000 0.000000 0.000000 0.000000 10.000000" Properties=species:S:1:pos:R:3:dft_forces:R:3 dft_energy=-1065.99480815
Na 1.37382 6.09522 8.49748 1143.74785 191.94892 -244.65782
O 8.28708 4.55085 4.56308 -0.29685 0.17117 -0.80670
H 8.75388 4.41397 3.70054 -0.27091 0.07341 0.59445
H 7.40583 4.92595 4.31148 0.56425 -0.24450 0.21561
O 4.88863 4.86941 6.18714 0.87389 -0.06759 0.03920
H 5.42696 4.06430 6.39355 -0.39620 0.50754 -0.13226
H 5.55799 5.58307 6.03472 -0.47466 -0.44042 0.08979
O 4.99343 1.83903 2.98591 0.55218 0.67951 -0.03294
H 5.06077 2.52245 2.27245 -0.08083 -0.46956 0.44669
H 5.69352 2.09220 3.63887 -0.47494 -0.20478 -0.40446
O 0.82826 1.58056 3.01310 0.83243 0.21360 -0.18136
H 1.61989 0.98565 3.00913 -0.55175 0.35724 0.01497
H 1.18560 2.47070 2.76704 -0.28085 -0.57068 0.16629
O 10.10176 5.31499 9.62153 -2.60547 -1.67496 1.15494
H 10.00228 4.37163 9.33729 0.01809 0.69238 0.22318
H 9.86028 5.84267 8.81914 -1141.15764 -190.95692 243.27443
O 1.80465 9.45068 6.62009 0.20666 -0.30902 0.43756
H 2.35305 8.67316 6.89456 -0.35175 0.48601 -0.21296
H 1.76820 10.02536 7.42570 -0.02985 -0.30651 -0.46500
O 3.30324 0.15372 8.77367 -7.76378 7.24304 -5.39411
H 2.84966 1.01131 8.57510 -0.06938 -0.08159 -0.31060
H 3.01768 -0.07048 9.69497 -1.03924 1.00828 -1.20625
O 6.01025 0.66290 0.21084 3.13471 2.53821 0.12906
H 6.36795 1.53938 0.50143 -0.37736 -0.53504 -0.17278
H 6.79347 0.18748 -0.16484 -0.87559 0.33614 0.15720
O 4.40916 9.12263 9.81894 6.64202 -11.10666 5.90505
H 4.91732 8.58957 9.15694 -0.23971 0.16118 0.42160
H 4.95572 9.93731 9.95364 0.27734 0.78496 0.30498
O 7.77856 9.53169 1.55885 1.20692 -0.01019 0.24509
H 8.51986 9.05113 2.00623 -0.49540 0.25511 -0.25070
H 8.22292 10.25868 1.05426 -0.22418 -0.47830 0.40785
31
Lattice="10.000000 0.000000 0.000000 0.000000 10.000000 0.000000 0.000000 0.000000 10.000000" Properties=species:S:1:pos:R:3:dft_forces:R:3 dft_energy=-1111.09351230
Na 5.13919 1.03346 7.82753 -0.17352 0.13189 -0.38366
O 6.94705 8.55170 6.55307 0.58593 -0.29864 0.52308
H 6.90676 8.39445 7.52993 -0.01597 0.12224 -0.61578
H 7.85074 8.24447 6.28936 -0.60356 0.22480 0.12937
O 1.18220 4.35417 8.14243 0.20104 -0.80293 -0.23237
H 1.16805 3.64420 8.83261 -0.00220 0.44759 -0.34843
H 1.47044 3.89107 7.31596 -0.18428 0.34768 0.47228
O 3.80026 9.24935 3.59911 0.51816 0.63225 -0.29714
H 4.78985 9.28538 3.60444 -0.65390 -0.06644 0.01739
H 3.52312 10.10350 3.18173 0.13688 -0.57863 0.28017
O 1.65948 4.61393 4.88733 -0.36261 0.65500 -0.18187
H 1.32077 5.41859 5.35468 0.23268 -0.54170 -0.26915
H 1.57409 4.83154 3.92506 0.10474 -0.14469 0.51103
O 3.11712 5.98777 2.86585 0.47013 0.74054 -0.29365
H 3.71219 6.53742 3.43539 -0.40029 -0.37322 -0.33036
H 3.13613 6.43528 1.98270 -0.04383 -0.32279 0.56059
O 1.02975 4.25893 0.99481 0.29073 0.70840 -0.29047
H 1.96399 4.58724 0.99667 -0.58562 -0.24587 0.03516
H 0.52450 4.95109 0.49859 0.28121 -0.45579 0.36588
O 6.86116 9.84296 9.88874 -0.76130 -0.31112 0.03226
H 6.07384 10.32062 9.52463 0.70126 -0.41597 0.57026
H 6.48531 9.02780 10.30687 0.28506 0.51441 -0.26580
O 5.60489 2.34142 1.09340 0.42366 0.05125 -0.46475
H 6.41862 2.11595 0.57608 -0.44864 0.08240 0.36120
H 5.24608 3.15139 0.65091 0.33056 -0.92034 0.51431
O 5.17278 4.73734 9.65405 -0.61770 -0.32661 -0.42058
H 4.93429 4.46543 8.73221 0.20568 0.19051 0.56305
H 4.65752 4.12295 10.23511 0.08791 0.96090 -0.54690
O 6.46219 4.11090 5.53723 -0.18546 -0.76411 -0.38812
H 6.80295 3.77198 4.67142 -0.20041 0.26376 0.56807
H 5.86364 3.39385 5.86612 0.38366 0.49520 -0.17509
